   2   2   1   0
  0.2012531E+02  0.3846767E-09  0.3846767E-09  0.3846767E-09  0.5000000E-15
  1.000000000000000E-004
  CAR 
 Si                                      
     18.51942063     -8.80471537  301      5.68428180      1.00000000
     -8.805  0.0000E+00  0.0000E+00
     -8.714  0.0000E+00  0.0000E+00
     -8.623  0.0000E+00  0.0000E+00
     -8.531  0.0000E+00  0.0000E+00
     -8.440  0.0000E+00  0.0000E+00
     -8.349  0.0000E+00  0.0000E+00
     -8.258  0.0000E+00  0.0000E+00
     -8.167  0.0000E+00  0.0000E+00
     -8.076  0.0000E+00  0.0000E+00
     -7.985  0.0000E+00  0.0000E+00
     -7.894  0.0000E+00  0.0000E+00
     -7.803  0.0000E+00  0.0000E+00
     -7.712  0.0000E+00  0.0000E+00
     -7.621  0.0000E+00  0.0000E+00
     -7.530  0.0000E+00  0.0000E+00
     -7.439  0.0000E+00  0.0000E+00
     -7.347  0.0000E+00  0.0000E+00
     -7.256  0.0000E+00  0.0000E+00
     -7.165  0.0000E+00  0.0000E+00
     -7.074  0.0000E+00  0.0000E+00
     -6.983  0.0000E+00  0.0000E+00
     -6.892  0.0000E+00  0.0000E+00
     -6.801  0.1729E-02  0.2172E-05
     -6.710  0.1237E+00  0.5576E-02
     -6.619  0.1404E+00  0.1623E-01
     -6.528  0.1676E+00  0.3019E-01
     -6.437  0.1961E+00  0.4682E-01
     -6.346  0.2203E+00  0.6574E-01
     -6.254  0.2422E+00  0.8688E-01
     -6.163  0.2644E+00  0.1099E+00
     -6.072  0.2836E+00  0.1349E+00
     -5.981  0.3035E+00  0.1616E+00
     -5.890  0.3218E+00  0.1901E+00
     -5.799  0.3400E+00  0.2203E+00
     -5.708  0.3588E+00  0.2521E+00
     -5.617  0.3759E+00  0.2856E+00
     -5.526  0.3944E+00  0.3206E+00
     -5.435  0.4123E+00  0.3574E+00
     -5.344  0.4303E+00  0.3958E+00
     -5.253  0.4497E+00  0.4358E+00
     -5.161  0.4688E+00  0.4777E+00
     -5.070  0.4889E+00  0.5213E+00
     -4.979  0.5107E+00  0.5668E+00
     -4.888  0.5336E+00  0.6143E+00
     -4.797  0.5590E+00  0.6641E+00
     -4.706  0.5882E+00  0.7163E+00
     -4.615  0.6221E+00  0.7714E+00
     -4.524  0.6657E+00  0.8299E+00
     -4.433  0.7323E+00  0.8933E+00
     -4.342  0.8605E+00  0.9665E+00
     -4.251  0.8330E+00  0.1043E+01
     -4.160  0.8015E+00  0.1118E+01
     -4.069  0.7784E+00  0.1189E+01
     -3.977  0.7467E+00  0.1259E+01
     -3.886  0.7167E+00  0.1325E+01
     -3.795  0.6906E+00  0.1389E+01
     -3.704  0.6600E+00  0.1451E+01
     -3.613  0.6332E+00  0.1510E+01
     -3.522  0.6040E+00  0.1566E+01
     -3.431  0.5755E+00  0.1620E+01
     -3.340  0.5471E+00  0.1671E+01
     -3.249  0.5149E+00  0.1719E+01
     -3.158  0.4850E+00  0.1765E+01
     -3.067  0.4518E+00  0.1808E+01
     -2.976  0.4183E+00  0.1847E+01
     -2.884  0.3867E+00  0.1884E+01
     -2.793  0.3484E+00  0.1917E+01
     -2.702  0.3215E+00  0.1948E+01
     -2.611  0.2534E+00  0.1974E+01
     -2.520  0.1172E+00  0.1992E+01
     -2.429  0.3746E-01  0.1998E+01
     -2.338  0.3760E-01  0.2001E+01
     -2.247  0.9971E-01  0.2007E+01
     -2.156  0.1809E+00  0.2020E+01
     -2.065  0.2429E+00  0.2039E+01
     -1.974  0.2986E+00  0.2064E+01
     -1.883  0.3456E+00  0.2093E+01
     -1.792  0.3945E+00  0.2127E+01
     -1.700  0.4504E+00  0.2165E+01
     -1.609  0.5082E+00  0.2209E+01
     -1.518  0.7663E+00  0.2262E+01
     -1.427  0.1218E+01  0.2349E+01
     -1.336  0.1810E+01  0.2501E+01
     -1.245  0.1086E+01  0.2618E+01
     -1.154  0.9051E+00  0.2708E+01
     -1.063  0.7948E+00  0.2785E+01
     -0.972  0.7153E+00  0.2854E+01
     -0.881  0.6594E+00  0.2916E+01
     -0.790  0.6099E+00  0.2974E+01
     -0.699  0.5650E+00  0.3027E+01
     -0.607  0.5332E+00  0.3077E+01
     -0.516  0.5028E+00  0.3125E+01
     -0.425  0.4724E+00  0.3169E+01
     -0.334  0.4461E+00  0.3211E+01
     -0.243  0.4254E+00  0.3250E+01
     -0.152  0.4042E+00  0.3288E+01
     -0.061  0.3815E+00  0.3324E+01
      0.030  0.3633E+00  0.3358E+01
      0.121  0.3482E+00  0.3390E+01
      0.212  0.3325E+00  0.3421E+01
      0.303  0.3152E+00  0.3451E+01
      0.394  0.2995E+00  0.3479E+01
      0.485  0.2880E+00  0.3505E+01
      0.577  0.2762E+00  0.3531E+01
      0.668  0.2631E+00  0.3556E+01
      0.759  0.2484E+00  0.3579E+01
      0.850  0.2389E+00  0.3601E+01
      0.941  0.2298E+00  0.3622E+01
      1.032  0.2200E+00  0.3643E+01
      1.123  0.2711E+00  0.3663E+01
      1.214  0.6499E+00  0.3707E+01
      1.305  0.8354E+00  0.3772E+01
      1.396  0.1183E+01  0.3860E+01
      1.487  0.1192E+01  0.3971E+01
      1.578  0.1098E+01  0.4075E+01
      1.670  0.1037E+01  0.4172E+01
      1.761  0.9834E+00  0.4264E+01
      1.852  0.9815E+00  0.4353E+01
      1.943  0.9878E+00  0.4443E+01
      2.034  0.9953E+00  0.4533E+01
      2.125  0.1009E+01  0.4625E+01
      2.216  0.1053E+01  0.4719E+01
      2.307  0.1069E+01  0.4816E+01
      2.398  0.1127E+01  0.4915E+01
      2.489  0.1169E+01  0.5020E+01
      2.580  0.1238E+01  0.5129E+01
      2.671  0.1428E+01  0.5250E+01
      2.763  0.1492E+01  0.5385E+01
      2.854  0.1456E+01  0.5518E+01
      2.945  0.1429E+01  0.5650E+01
      3.036  0.1405E+01  0.5779E+01
      3.127  0.1381E+01  0.5906E+01
      3.218  0.1358E+01  0.6030E+01
      3.309  0.1335E+01  0.6153E+01
      3.400  0.1312E+01  0.6274E+01
      3.491  0.1288E+01  0.6392E+01
      3.582  0.1273E+01  0.6508E+01
      3.673  0.1244E+01  0.6623E+01
      3.764  0.1218E+01  0.6735E+01
      3.855  0.1203E+01  0.6845E+01
      3.947  0.1189E+01  0.6954E+01
      4.038  0.1170E+01  0.7062E+01
      4.129  0.1148E+01  0.7167E+01
      4.220  0.1129E+01  0.7271E+01
      4.311  0.1122E+01  0.7373E+01
      4.402  0.1074E+01  0.7474E+01
      4.493  0.8151E+00  0.7557E+01
      4.584  0.7043E+00  0.7626E+01
      4.675  0.6186E+00  0.7686E+01
      4.766  0.5434E+00  0.7739E+01
      4.857  0.4812E+00  0.7786E+01
      4.948  0.4294E+00  0.7827E+01
      5.040  0.3771E+00  0.7864E+01
      5.131  0.3284E+00  0.7896E+01
      5.222  0.2845E+00  0.7924E+01
      5.313  0.2405E+00  0.7948E+01
      5.404  0.1936E+00  0.7967E+01
      5.495  0.1601E+00  0.7984E+01
      5.586  0.1013E+00  0.7995E+01
      5.677  0.1110E-02  0.8000E+01
      5.768  0.0000E+00  0.8000E+01
      5.859  0.0000E+00  0.8000E+01
      5.950  0.0000E+00  0.8000E+01
      6.041  0.0000E+00  0.8000E+01
      6.132  0.0000E+00  0.8000E+01
      6.224  0.0000E+00  0.8000E+01
      6.315  0.0000E+00  0.8000E+01
      6.406  0.0000E+00  0.8000E+01
      6.497  0.1836E-01  0.8000E+01
      6.588  0.1229E+00  0.8007E+01
      6.679  0.1978E+00  0.8021E+01
      6.770  0.2845E+00  0.8044E+01
      6.861  0.3289E+00  0.8071E+01
      6.952  0.3762E+00  0.8103E+01
      7.043  0.4289E+00  0.8140E+01
      7.134  0.4834E+00  0.8182E+01
      7.225  0.5226E+00  0.8228E+01
      7.317  0.5651E+00  0.8277E+01
      7.408  0.6071E+00  0.8331E+01
      7.499  0.6505E+00  0.8388E+01
      7.590  0.7117E+00  0.8449E+01
      7.681  0.8273E+00  0.8519E+01
      7.772  0.9082E+00  0.8598E+01
      7.863  0.9909E+00  0.8685E+01
      7.954  0.1089E+01  0.8779E+01
      8.045  0.1218E+01  0.8884E+01
      8.136  0.1416E+01  0.9003E+01
      8.227  0.1689E+01  0.9145E+01
      8.318  0.1593E+01  0.9294E+01
      8.409  0.1649E+01  0.9439E+01
      8.501  0.1533E+01  0.9582E+01
      8.592  0.1287E+01  0.9711E+01
      8.683  0.1185E+01  0.9823E+01
      8.774  0.1163E+01  0.9928E+01
      8.865  0.1180E+01  0.1004E+02
      8.956  0.1054E+01  0.1014E+02
      9.047  0.1007E+01  0.1023E+02
      9.138  0.1069E+01  0.1032E+02
      9.229  0.2195E+01  0.1046E+02
      9.320  0.2241E+01  0.1066E+02
      9.411  0.1833E+01  0.1084E+02
      9.502  0.1614E+01  0.1100E+02
      9.594  0.1561E+01  0.1114E+02
      9.685  0.1637E+01  0.1128E+02
      9.776  0.1672E+01  0.1144E+02
      9.867  0.1706E+01  0.1159E+02
      9.958  0.1379E+01  0.1173E+02
     10.049  0.1285E+01  0.1184E+02
     10.140  0.1124E+01  0.1195E+02
     10.231  0.1043E+01  0.1205E+02
     10.322  0.1043E+01  0.1214E+02
     10.413  0.1105E+01  0.1224E+02
     10.504  0.1233E+01  0.1235E+02
     10.595  0.1393E+01  0.1247E+02
     10.687  0.1140E+01  0.1258E+02
     10.778  0.1146E+01  0.1269E+02
     10.869  0.1133E+01  0.1279E+02
     10.960  0.1151E+01  0.1290E+02
     11.051  0.1162E+01  0.1300E+02
     11.142  0.1160E+01  0.1311E+02
     11.233  0.1153E+01  0.1321E+02
     11.324  0.1118E+01  0.1332E+02
     11.415  0.1117E+01  0.1342E+02
     11.506  0.1141E+01  0.1352E+02
     11.597  0.1090E+01  0.1362E+02
     11.688  0.1120E+01  0.1372E+02
     11.779  0.1080E+01  0.1382E+02
     11.871  0.1024E+01  0.1392E+02
     11.962  0.9984E+00  0.1401E+02
     12.053  0.9957E+00  0.1410E+02
     12.144  0.9801E+00  0.1419E+02
     12.235  0.9624E+00  0.1428E+02
     12.326  0.9640E+00  0.1437E+02
     12.417  0.9490E+00  0.1446E+02
     12.508  0.8233E+00  0.1453E+02
     12.599  0.8220E+00  0.1461E+02
     12.690  0.8254E+00  0.1468E+02
     12.781  0.8875E+00  0.1476E+02
     12.872  0.9294E+00  0.1485E+02
     12.964  0.9461E+00  0.1493E+02
     13.055  0.8518E+00  0.1501E+02
     13.146  0.7490E+00  0.1509E+02
     13.237  0.7013E+00  0.1515E+02
     13.328  0.6710E+00  0.1522E+02
     13.419  0.6190E+00  0.1527E+02
     13.510  0.5852E+00  0.1533E+02
     13.601  0.5668E+00  0.1538E+02
     13.692  0.5450E+00  0.1543E+02
     13.783  0.5103E+00  0.1548E+02
     13.874  0.5058E+00  0.1553E+02
     13.965  0.4884E+00  0.1557E+02
     14.056  0.5252E+00  0.1562E+02
     14.148  0.5416E+00  0.1567E+02
     14.239  0.4532E+00  0.1571E+02
     14.330  0.4088E+00  0.1575E+02
     14.421  0.2650E+00  0.1578E+02
     14.512  0.2219E+00  0.1581E+02
     14.603  0.2114E+00  0.1583E+02
     14.694  0.1961E+00  0.1584E+02
     14.785  0.2015E+00  0.1586E+02
     14.876  0.1701E+00  0.1588E+02
     14.967  0.1489E+00  0.1589E+02
     15.058  0.1346E+00  0.1591E+02
     15.149  0.1245E+00  0.1592E+02
     15.241  0.1178E+00  0.1593E+02
     15.332  0.1117E+00  0.1594E+02
     15.423  0.1028E+00  0.1595E+02
     15.514  0.9385E-01  0.1596E+02
     15.605  0.7929E-01  0.1597E+02
     15.696  0.6549E-01  0.1597E+02
     15.787  0.5506E-01  0.1598E+02
     15.878  0.4652E-01  0.1598E+02
     15.969  0.4065E-01  0.1599E+02
     16.060  0.3794E-01  0.1599E+02
     16.151  0.3717E-01  0.1599E+02
     16.242  0.3074E-01  0.1600E+02
     16.333  0.9046E-02  0.1600E+02
     16.425  0.2354E-02  0.1600E+02
     16.516  0.3719E-05  0.1600E+02
     16.607  0.0000E+00  0.1600E+02
     16.698  0.0000E+00  0.1600E+02
     16.789  0.0000E+00  0.1600E+02
     16.880  0.0000E+00  0.1600E+02
     16.971  0.0000E+00  0.1600E+02
     17.062  0.0000E+00  0.1600E+02
     17.153  0.0000E+00  0.1600E+02
     17.244  0.0000E+00  0.1600E+02
     17.335  0.0000E+00  0.1600E+02
     17.426  0.0000E+00  0.1600E+02
     17.518  0.0000E+00  0.1600E+02
     17.609  0.0000E+00  0.1600E+02
     17.700  0.0000E+00  0.1600E+02
     17.791  0.0000E+00  0.1600E+02
     17.882  0.0000E+00  0.1600E+02
     17.973  0.0000E+00  0.1600E+02
     18.064  0.0000E+00  0.1600E+02
     18.155  0.0000E+00  0.1600E+02
     18.246  0.0000E+00  0.1600E+02
     18.337  0.0000E+00  0.1600E+02
     18.428  0.0000E+00  0.1600E+02
     18.519  0.0000E+00  0.1600E+02
     18.51942063     -8.80471537  301      5.68428180      1.00000000
     -8.805  0.0000E+00  0.0000E+00  0.0000E+00  0.0000E+00  0.0000E+00  0.0000E+00  0.0000E+00  0.0000E+00  0.0000E+00
     -8.714  0.0000E+00  0.0000E+00  0.0000E+00  0.0000E+00  0.0000E+00  0.0000E+00  0.0000E+00  0.0000E+00  0.0000E+00
     -8.623  0.0000E+00  0.0000E+00  0.0000E+00  0.0000E+00  0.0000E+00  0.0000E+00  0.0000E+00  0.0000E+00  0.0000E+00
     -8.531  0.0000E+00  0.0000E+00  0.0000E+00  0.0000E+00  0.0000E+00  0.0000E+00  0.0000E+00  0.0000E+00  0.0000E+00
     -8.440  0.0000E+00  0.0000E+00  0.0000E+00  0.0000E+00  0.0000E+00  0.0000E+00  0.0000E+00  0.0000E+00  0.0000E+00
     -8.349  0.0000E+00  0.0000E+00  0.0000E+00  0.0000E+00  0.0000E+00  0.0000E+00  0.0000E+00  0.0000E+00  0.0000E+00
     -8.258  0.0000E+00  0.0000E+00  0.0000E+00  0.0000E+00  0.0000E+00  0.0000E+00  0.0000E+00  0.0000E+00  0.0000E+00
     -8.167  0.0000E+00  0.0000E+00  0.0000E+00  0.0000E+00  0.0000E+00  0.0000E+00  0.0000E+00  0.0000E+00  0.0000E+00
     -8.076  0.0000E+00  0.0000E+00  0.0000E+00  0.0000E+00  0.0000E+00  0.0000E+00  0.0000E+00  0.0000E+00  0.0000E+00
     -7.985  0.0000E+00  0.0000E+00  0.0000E+00  0.0000E+00  0.0000E+00  0.0000E+00  0.0000E+00  0.0000E+00  0.0000E+00
     -7.894  0.0000E+00  0.0000E+00  0.0000E+00  0.0000E+00  0.0000E+00  0.0000E+00  0.0000E+00  0.0000E+00  0.0000E+00
     -7.803  0.0000E+00  0.0000E+00  0.0000E+00  0.0000E+00  0.0000E+00  0.0000E+00  0.0000E+00  0.0000E+00  0.0000E+00
     -7.712  0.0000E+00  0.0000E+00  0.0000E+00  0.0000E+00  0.0000E+00  0.0000E+00  0.0000E+00  0.0000E+00  0.0000E+00
     -7.621  0.0000E+00  0.0000E+00  0.0000E+00  0.0000E+00  0.0000E+00  0.0000E+00  0.0000E+00  0.0000E+00  0.0000E+00
     -7.530  0.0000E+00  0.0000E+00  0.0000E+00  0.0000E+00  0.0000E+00  0.0000E+00  0.0000E+00  0.0000E+00  0.0000E+00
     -7.439  0.0000E+00  0.0000E+00  0.0000E+00  0.0000E+00  0.0000E+00  0.0000E+00  0.0000E+00  0.0000E+00  0.0000E+00
     -7.347  0.0000E+00  0.0000E+00  0.0000E+00  0.0000E+00  0.0000E+00  0.0000E+00  0.0000E+00  0.0000E+00  0.0000E+00
     -7.256  0.0000E+00  0.0000E+00  0.0000E+00  0.0000E+00  0.0000E+00  0.0000E+00  0.0000E+00  0.0000E+00  0.0000E+00
     -7.165  0.0000E+00  0.0000E+00  0.0000E+00  0.0000E+00  0.0000E+00  0.0000E+00  0.0000E+00  0.0000E+00  0.0000E+00
     -7.074  0.0000E+00  0.0000E+00  0.0000E+00  0.0000E+00  0.0000E+00  0.0000E+00  0.0000E+00  0.0000E+00  0.0000E+00
     -6.983  0.0000E+00  0.0000E+00  0.0000E+00  0.0000E+00  0.0000E+00  0.0000E+00  0.0000E+00  0.0000E+00  0.0000E+00
     -6.892  0.0000E+00  0.0000E+00  0.0000E+00  0.0000E+00  0.0000E+00  0.0000E+00  0.0000E+00  0.0000E+00  0.0000E+00
     -6.801  0.3711E-03  0.1055E-06  0.1055E-06  0.1055E-06  0.0000E+00  0.0000E+00  0.0000E+00  0.0000E+00  0.0000E+00
     -6.710  0.2650E-01  0.3909E-04  0.3909E-04  0.3909E-04  0.0000E+00  0.0000E+00  0.0000E+00  0.0000E+00  0.0000E+00
     -6.619  0.3003E-01  0.9533E-04  0.9533E-04  0.9533E-04  0.0000E+00  0.0000E+00  0.0000E+00  0.0000E+00  0.0000E+00
     -6.528  0.3575E-01  0.1684E-03  0.1684E-03  0.1684E-03  0.0000E+00  0.0000E+00  0.0000E+00  0.0000E+00  0.0000E+00
     -6.437  0.4175E-01  0.2566E-03  0.2566E-03  0.2566E-03  0.0000E+00  0.0000E+00  0.0000E+00  0.0000E+00  0.0000E+00
     -6.346  0.4681E-01  0.3575E-03  0.3575E-03  0.3575E-03  0.0000E+00  0.0000E+00  0.0000E+00  0.0000E+00  0.0000E+00
     -6.254  0.5138E-01  0.4709E-03  0.4709E-03  0.4709E-03  0.0000E+00  0.0000E+00  0.0000E+00  0.0000E+00  0.0000E+00
     -6.163  0.5599E-01  0.5898E-03  0.5898E-03  0.5898E-03  0.0000E+00  0.0000E+00  0.0000E+00  0.0000E+00  0.0000E+00
     -6.072  0.5994E-01  0.7234E-03  0.7234E-03  0.7234E-03  0.0000E+00  0.0000E+00  0.0000E+00  0.0000E+00  0.0000E+00
     -5.981  0.6405E-01  0.8608E-03  0.8608E-03  0.8608E-03  0.0000E+00  0.0000E+00  0.0000E+00  0.0000E+00  0.0000E+00
     -5.890  0.6781E-01  0.1011E-02  0.1011E-02  0.1011E-02  0.0000E+00  0.0000E+00  0.0000E+00  0.0000E+00  0.0000E+00
     -5.799  0.7155E-01  0.1167E-02  0.1167E-02  0.1167E-02  0.0000E+00  0.0000E+00  0.0000E+00  0.0000E+00  0.0000E+00
     -5.708  0.7543E-01  0.1328E-02  0.1328E-02  0.1328E-02  0.0000E+00  0.0000E+00  0.0000E+00  0.0000E+00  0.0000E+00
     -5.617  0.7893E-01  0.1505E-02  0.1505E-02  0.1505E-02  0.0000E+00  0.0000E+00  0.0000E+00  0.0000E+00  0.0000E+00
     -5.526  0.8274E-01  0.1681E-02  0.1681E-02  0.1681E-02  0.0000E+00  0.0000E+00  0.0000E+00  0.0000E+00  0.0000E+00
     -5.435  0.8644E-01  0.1871E-02  0.1871E-02  0.1871E-02  0.0000E+00  0.0000E+00  0.0000E+00  0.0000E+00  0.0000E+00
     -5.344  0.9016E-01  0.2070E-02  0.2070E-02  0.2070E-02  0.0000E+00  0.0000E+00  0.0000E+00  0.0000E+00  0.0000E+00
     -5.253  0.9418E-01  0.2270E-02  0.2270E-02  0.2270E-02  0.0000E+00  0.0000E+00  0.0000E+00  0.0000E+00  0.0000E+00
     -5.161  0.9816E-01  0.2488E-02  0.2488E-02  0.2488E-02  0.0000E+00  0.0000E+00  0.0000E+00  0.0000E+00  0.0000E+00
     -5.070  0.1024E+00  0.2715E-02  0.2715E-02  0.2715E-02  0.0000E+00  0.0000E+00  0.0000E+00  0.0000E+00  0.0000E+00
     -4.979  0.1070E+00  0.2947E-02  0.2947E-02  0.2947E-02  0.0000E+00  0.0000E+00  0.0000E+00  0.0000E+00  0.0000E+00
     -4.888  0.1119E+00  0.3202E-02  0.3202E-02  0.3202E-02  0.0000E+00  0.0000E+00  0.0000E+00  0.0000E+00  0.0000E+00
     -4.797  0.1173E+00  0.3474E-02  0.3474E-02  0.3474E-02  0.0000E+00  0.0000E+00  0.0000E+00  0.0000E+00  0.0000E+00
     -4.706  0.1236E+00  0.3760E-02  0.3760E-02  0.3760E-02  0.0000E+00  0.0000E+00  0.0000E+00  0.0000E+00  0.0000E+00
     -4.615  0.1311E+00  0.4083E-02  0.4083E-02  0.4083E-02  0.0000E+00  0.0000E+00  0.0000E+00  0.0000E+00  0.0000E+00
     -4.524  0.1407E+00  0.4469E-02  0.4469E-02  0.4469E-02  0.0000E+00  0.0000E+00  0.0000E+00  0.0000E+00  0.0000E+00
     -4.433  0.1555E+00  0.4966E-02  0.4966E-02  0.4966E-02  0.0000E+00  0.0000E+00  0.0000E+00  0.0000E+00  0.0000E+00
     -4.342  0.1842E+00  0.5780E-02  0.5780E-02  0.5780E-02  0.0000E+00  0.0000E+00  0.0000E+00  0.0000E+00  0.0000E+00
     -4.251  0.1780E+00  0.5894E-02  0.5894E-02  0.5894E-02  0.0000E+00  0.0000E+00  0.0000E+00  0.0000E+00  0.0000E+00
     -4.160  0.1709E+00  0.5929E-02  0.5929E-02  0.5929E-02  0.0000E+00  0.0000E+00  0.0000E+00  0.0000E+00  0.0000E+00
     -4.069  0.1657E+00  0.5995E-02  0.5995E-02  0.5995E-02  0.0000E+00  0.0000E+00  0.0000E+00  0.0000E+00  0.0000E+00
     -3.977  0.1587E+00  0.6028E-02  0.6028E-02  0.6028E-02  0.0000E+00  0.0000E+00  0.0000E+00  0.0000E+00  0.0000E+00
     -3.886  0.1520E+00  0.6022E-02  0.6022E-02  0.6022E-02  0.0000E+00  0.0000E+00  0.0000E+00  0.0000E+00  0.0000E+00
     -3.795  0.1462E+00  0.6025E-02  0.6025E-02  0.6025E-02  0.0000E+00  0.0000E+00  0.0000E+00  0.0000E+00  0.0000E+00
     -3.704  0.1394E+00  0.6000E-02  0.6000E-02  0.6000E-02  0.0000E+00  0.0000E+00  0.0000E+00  0.0000E+00  0.0000E+00
     -3.613  0.1335E+00  0.5961E-02  0.5961E-02  0.5961E-02  0.0000E+00  0.0000E+00  0.0000E+00  0.0000E+00  0.0000E+00
     -3.522  0.1270E+00  0.5891E-02  0.5891E-02  0.5891E-02  0.0000E+00  0.0000E+00  0.0000E+00  0.0000E+00  0.0000E+00
     -3.431  0.1208E+00  0.5818E-02  0.5818E-02  0.5818E-02  0.0000E+00  0.0000E+00  0.0000E+00  0.0000E+00  0.0000E+00
     -3.340  0.1146E+00  0.5712E-02  0.5712E-02  0.5712E-02  0.0000E+00  0.0000E+00  0.0000E+00  0.0000E+00  0.0000E+00
     -3.249  0.1075E+00  0.5567E-02  0.5567E-02  0.5567E-02  0.0000E+00  0.0000E+00  0.0000E+00  0.0000E+00  0.0000E+00
     -3.158  0.1010E+00  0.5415E-02  0.5415E-02  0.5415E-02  0.0000E+00  0.0000E+00  0.0000E+00  0.0000E+00  0.0000E+00
     -3.067  0.9382E-01  0.5218E-02  0.5218E-02  0.5218E-02  0.0000E+00  0.0000E+00  0.0000E+00  0.0000E+00  0.0000E+00
     -2.976  0.8657E-01  0.4990E-02  0.4990E-02  0.4990E-02  0.0000E+00  0.0000E+00  0.0000E+00  0.0000E+00  0.0000E+00
     -2.884  0.7973E-01  0.4755E-02  0.4755E-02  0.4755E-02  0.0000E+00  0.0000E+00  0.0000E+00  0.0000E+00  0.0000E+00
     -2.793  0.7145E-01  0.4448E-02  0.4448E-02  0.4448E-02  0.0000E+00  0.0000E+00  0.0000E+00  0.0000E+00  0.0000E+00
     -2.702  0.6544E-01  0.4260E-02  0.4260E-02  0.4260E-02  0.0000E+00  0.0000E+00  0.0000E+00  0.0000E+00  0.0000E+00
     -2.611  0.5119E-01  0.3472E-02  0.3472E-02  0.3472E-02  0.0000E+00  0.0000E+00  0.0000E+00  0.0000E+00  0.0000E+00
     -2.520  0.2358E-01  0.1648E-02  0.1648E-02  0.1648E-02  0.0000E+00  0.0000E+00  0.0000E+00  0.0000E+00  0.0000E+00
     -2.429  0.7597E-02  0.5263E-03  0.5263E-03  0.5263E-03  0.0000E+00  0.0000E+00  0.0000E+00  0.0000E+00  0.0000E+00
     -2.338  0.7317E-02  0.5957E-03  0.5957E-03  0.5957E-03  0.0000E+00  0.0000E+00  0.0000E+00  0.0000E+00  0.0000E+00
     -2.247  0.1930E-01  0.1619E-02  0.1619E-02  0.1619E-02  0.0000E+00  0.0000E+00  0.0000E+00  0.0000E+00  0.0000E+00
     -2.156  0.3506E-01  0.2967E-02  0.2967E-02  0.2967E-02  0.0000E+00  0.0000E+00  0.0000E+00  0.0000E+00  0.0000E+00
     -2.065  0.4702E-01  0.4053E-02  0.4053E-02  0.4053E-02  0.0000E+00  0.0000E+00  0.0000E+00  0.0000E+00  0.0000E+00
     -1.974  0.5741E-01  0.5133E-02  0.5133E-02  0.5133E-02  0.0000E+00  0.0000E+00  0.0000E+00  0.0000E+00  0.0000E+00
     -1.883  0.6603E-01  0.6099E-02  0.6099E-02  0.6099E-02  0.0000E+00  0.0000E+00  0.0000E+00  0.0000E+00  0.0000E+00
     -1.792  0.7471E-01  0.7167E-02  0.7167E-02  0.7167E-02  0.0000E+00  0.0000E+00  0.0000E+00  0.0000E+00  0.0000E+00
     -1.700  0.8430E-01  0.8458E-02  0.8458E-02  0.8458E-02  0.0000E+00  0.0000E+00  0.0000E+00  0.0000E+00  0.0000E+00
     -1.609  0.9386E-01  0.9860E-02  0.9860E-02  0.9860E-02  0.0000E+00  0.0000E+00  0.0000E+00  0.0000E+00  0.0000E+00
     -1.518  0.1248E+00  0.1753E-01  0.1753E-01  0.1753E-01  0.0000E+00  0.0000E+00  0.0000E+00  0.0000E+00  0.0000E+00
     -1.427  0.1809E+00  0.3073E-01  0.3073E-01  0.3073E-01  0.0000E+00  0.0000E+00  0.0000E+00  0.0000E+00  0.0000E+00
     -1.336  0.2612E+00  0.4722E-01  0.4722E-01  0.4722E-01  0.0000E+00  0.0000E+00  0.0000E+00  0.0000E+00  0.0000E+00
     -1.245  0.1609E+00  0.2799E-01  0.2799E-01  0.2799E-01  0.0000E+00  0.0000E+00  0.0000E+00  0.0000E+00  0.0000E+00
     -1.154  0.1352E+00  0.2341E-01  0.2341E-01  0.2341E-01  0.0000E+00  0.0000E+00  0.0000E+00  0.0000E+00  0.0000E+00
     -1.063  0.1189E+00  0.2073E-01  0.2073E-01  0.2073E-01  0.0000E+00  0.0000E+00  0.0000E+00  0.0000E+00  0.0000E+00
     -0.972  0.1069E+00  0.1885E-01  0.1885E-01  0.1885E-01  0.0000E+00  0.0000E+00  0.0000E+00  0.0000E+00  0.0000E+00
     -0.881  0.9847E-01  0.1756E-01  0.1756E-01  0.1756E-01  0.0000E+00  0.0000E+00  0.0000E+00  0.0000E+00  0.0000E+00
     -0.790  0.9078E-01  0.1644E-01  0.1644E-01  0.1644E-01  0.0000E+00  0.0000E+00  0.0000E+00  0.0000E+00  0.0000E+00
     -0.699  0.8368E-01  0.1543E-01  0.1543E-01  0.1543E-01  0.0000E+00  0.0000E+00  0.0000E+00  0.0000E+00  0.0000E+00
     -0.607  0.7872E-01  0.1473E-01  0.1473E-01  0.1473E-01  0.0000E+00  0.0000E+00  0.0000E+00  0.0000E+00  0.0000E+00
     -0.516  0.7387E-01  0.1407E-01  0.1407E-01  0.1407E-01  0.0000E+00  0.0000E+00  0.0000E+00  0.0000E+00  0.0000E+00
     -0.425  0.6897E-01  0.1340E-01  0.1340E-01  0.1340E-01  0.0000E+00  0.0000E+00  0.0000E+00  0.0000E+00  0.0000E+00
     -0.334  0.6474E-01  0.1283E-01  0.1283E-01  0.1283E-01  0.0000E+00  0.0000E+00  0.0000E+00  0.0000E+00  0.0000E+00
     -0.243  0.6141E-01  0.1238E-01  0.1238E-01  0.1238E-01  0.0000E+00  0.0000E+00  0.0000E+00  0.0000E+00  0.0000E+00
     -0.152  0.5796E-01  0.1192E-01  0.1192E-01  0.1192E-01  0.0000E+00  0.0000E+00  0.0000E+00  0.0000E+00  0.0000E+00
     -0.061  0.5427E-01  0.1142E-01  0.1142E-01  0.1142E-01  0.0000E+00  0.0000E+00  0.0000E+00  0.0000E+00  0.0000E+00
      0.030  0.5132E-01  0.1102E-01  0.1102E-01  0.1102E-01  0.0000E+00  0.0000E+00  0.0000E+00  0.0000E+00  0.0000E+00
      0.121  0.4887E-01  0.1069E-01  0.1069E-01  0.1069E-01  0.0000E+00  0.0000E+00  0.0000E+00  0.0000E+00  0.0000E+00
      0.212  0.4630E-01  0.1034E-01  0.1034E-01  0.1034E-01  0.0000E+00  0.0000E+00  0.0000E+00  0.0000E+00  0.0000E+00
      0.303  0.4351E-01  0.9945E-02  0.9945E-02  0.9945E-02  0.0000E+00  0.0000E+00  0.0000E+00  0.0000E+00  0.0000E+00
      0.394  0.4099E-01  0.9579E-02  0.9579E-02  0.9579E-02  0.0000E+00  0.0000E+00  0.0000E+00  0.0000E+00  0.0000E+00
      0.485  0.3912E-01  0.9321E-02  0.9321E-02  0.9321E-02  0.0000E+00  0.0000E+00  0.0000E+00  0.0000E+00  0.0000E+00
      0.577  0.3721E-01  0.9052E-02  0.9052E-02  0.9052E-02  0.0000E+00  0.0000E+00  0.0000E+00  0.0000E+00  0.0000E+00
      0.668  0.3509E-01  0.8738E-02  0.8738E-02  0.8738E-02  0.0000E+00  0.0000E+00  0.0000E+00  0.0000E+00  0.0000E+00
      0.759  0.3278E-01  0.8371E-02  0.8371E-02  0.8371E-02  0.0000E+00  0.0000E+00  0.0000E+00  0.0000E+00  0.0000E+00
      0.850  0.3128E-01  0.8148E-02  0.8148E-02  0.8148E-02  0.0000E+00  0.0000E+00  0.0000E+00  0.0000E+00  0.0000E+00
      0.941  0.2982E-01  0.7931E-02  0.7931E-02  0.7931E-02  0.0000E+00  0.0000E+00  0.0000E+00  0.0000E+00  0.0000E+00
      1.032  0.2826E-01  0.7689E-02  0.7689E-02  0.7689E-02  0.0000E+00  0.0000E+00  0.0000E+00  0.0000E+00  0.0000E+00
      1.123  0.2675E-01  0.1064E-01  0.1064E-01  0.1064E-01  0.0000E+00  0.0000E+00  0.0000E+00  0.0000E+00  0.0000E+00
      1.214  0.2700E-01  0.3070E-01  0.3070E-01  0.3070E-01  0.0000E+00  0.0000E+00  0.0000E+00  0.0000E+00  0.0000E+00
      1.305  0.2776E-01  0.4069E-01  0.4069E-01  0.4069E-01  0.0000E+00  0.0000E+00  0.0000E+00  0.0000E+00  0.0000E+00
      1.396  0.3012E-01  0.5934E-01  0.5934E-01  0.5934E-01  0.0000E+00  0.0000E+00  0.0000E+00  0.0000E+00  0.0000E+00
      1.487  0.3078E-01  0.6013E-01  0.6013E-01  0.6013E-01  0.0000E+00  0.0000E+00  0.0000E+00  0.0000E+00  0.0000E+00
      1.578  0.3059E-01  0.5552E-01  0.5552E-01  0.5552E-01  0.0000E+00  0.0000E+00  0.0000E+00  0.0000E+00  0.0000E+00
      1.670  0.3015E-01  0.5268E-01  0.5268E-01  0.5268E-01  0.0000E+00  0.0000E+00  0.0000E+00  0.0000E+00  0.0000E+00
      1.761  0.3002E-01  0.5013E-01  0.5013E-01  0.5013E-01  0.0000E+00  0.0000E+00  0.0000E+00  0.0000E+00  0.0000E+00
      1.852  0.2987E-01  0.5042E-01  0.5042E-01  0.5042E-01  0.0000E+00  0.0000E+00  0.0000E+00  0.0000E+00  0.0000E+00
      1.943  0.2943E-01  0.5131E-01  0.5131E-01  0.5131E-01  0.0000E+00  0.0000E+00  0.0000E+00  0.0000E+00  0.0000E+00
      2.034  0.2869E-01  0.5224E-01  0.5224E-01  0.5224E-01  0.0000E+00  0.0000E+00  0.0000E+00  0.0000E+00  0.0000E+00
      2.125  0.2785E-01  0.5361E-01  0.5361E-01  0.5361E-01  0.0000E+00  0.0000E+00  0.0000E+00  0.0000E+00  0.0000E+00
      2.216  0.2746E-01  0.5675E-01  0.5675E-01  0.5675E-01  0.0000E+00  0.0000E+00  0.0000E+00  0.0000E+00  0.0000E+00
      2.307  0.2681E-01  0.5828E-01  0.5828E-01  0.5828E-01  0.0000E+00  0.0000E+00  0.0000E+00  0.0000E+00  0.0000E+00
      2.398  0.2616E-01  0.6252E-01  0.6252E-01  0.6252E-01  0.0000E+00  0.0000E+00  0.0000E+00  0.0000E+00  0.0000E+00
      2.489  0.2536E-01  0.6584E-01  0.6584E-01  0.6584E-01  0.0000E+00  0.0000E+00  0.0000E+00  0.0000E+00  0.0000E+00
      2.580  0.2438E-01  0.7093E-01  0.7093E-01  0.7093E-01  0.0000E+00  0.0000E+00  0.0000E+00  0.0000E+00  0.0000E+00
      2.671  0.2345E-01  0.8418E-01  0.8418E-01  0.8418E-01  0.0000E+00  0.0000E+00  0.0000E+00  0.0000E+00  0.0000E+00
      2.763  0.2254E-01  0.8923E-01  0.8923E-01  0.8923E-01  0.0000E+00  0.0000E+00  0.0000E+00  0.0000E+00  0.0000E+00
      2.854  0.2174E-01  0.8752E-01  0.8752E-01  0.8752E-01  0.0000E+00  0.0000E+00  0.0000E+00  0.0000E+00  0.0000E+00
      2.945  0.2085E-01  0.8652E-01  0.8652E-01  0.8652E-01  0.0000E+00  0.0000E+00  0.0000E+00  0.0000E+00  0.0000E+00
      3.036  0.1981E-01  0.8568E-01  0.8568E-01  0.8568E-01  0.0000E+00  0.0000E+00  0.0000E+00  0.0000E+00  0.0000E+00
      3.127  0.1865E-01  0.8492E-01  0.8492E-01  0.8492E-01  0.0000E+00  0.0000E+00  0.0000E+00  0.0000E+00  0.0000E+00
      3.218  0.1773E-01  0.8414E-01  0.8414E-01  0.8414E-01  0.0000E+00  0.0000E+00  0.0000E+00  0.0000E+00  0.0000E+00
      3.309  0.1693E-01  0.8335E-01  0.8335E-01  0.8335E-01  0.0000E+00  0.0000E+00  0.0000E+00  0.0000E+00  0.0000E+00
      3.400  0.1609E-01  0.8253E-01  0.8253E-01  0.8253E-01  0.0000E+00  0.0000E+00  0.0000E+00  0.0000E+00  0.0000E+00
      3.491  0.1523E-01  0.8162E-01  0.8162E-01  0.8162E-01  0.0000E+00  0.0000E+00  0.0000E+00  0.0000E+00  0.0000E+00
      3.582  0.1424E-01  0.8142E-01  0.8142E-01  0.8142E-01  0.0000E+00  0.0000E+00  0.0000E+00  0.0000E+00  0.0000E+00
      3.673  0.1310E-01  0.8027E-01  0.8027E-01  0.8027E-01  0.0000E+00  0.0000E+00  0.0000E+00  0.0000E+00  0.0000E+00
      3.764  0.1226E-01  0.7927E-01  0.7927E-01  0.7927E-01  0.0000E+00  0.0000E+00  0.0000E+00  0.0000E+00  0.0000E+00
      3.855  0.1146E-01  0.7897E-01  0.7897E-01  0.7897E-01  0.0000E+00  0.0000E+00  0.0000E+00  0.0000E+00  0.0000E+00
      3.947  0.1051E-01  0.7877E-01  0.7877E-01  0.7877E-01  0.0000E+00  0.0000E+00  0.0000E+00  0.0000E+00  0.0000E+00
      4.038  0.9482E-02  0.7831E-01  0.7831E-01  0.7831E-01  0.0000E+00  0.0000E+00  0.0000E+00  0.0000E+00  0.0000E+00
      4.129  0.8499E-02  0.7755E-01  0.7755E-01  0.7755E-01  0.0000E+00  0.0000E+00  0.0000E+00  0.0000E+00  0.0000E+00
      4.220  0.7518E-02  0.7703E-01  0.7703E-01  0.7703E-01  0.0000E+00  0.0000E+00  0.0000E+00  0.0000E+00  0.0000E+00
      4.311  0.6806E-02  0.7729E-01  0.7729E-01  0.7729E-01  0.0000E+00  0.0000E+00  0.0000E+00  0.0000E+00  0.0000E+00
      4.402  0.6093E-02  0.7456E-01  0.7456E-01  0.7456E-01  0.0000E+00  0.0000E+00  0.0000E+00  0.0000E+00  0.0000E+00
      4.493  0.5581E-02  0.5628E-01  0.5628E-01  0.5628E-01  0.0000E+00  0.0000E+00  0.0000E+00  0.0000E+00  0.0000E+00
      4.584  0.4957E-02  0.4869E-01  0.4869E-01  0.4869E-01  0.0000E+00  0.0000E+00  0.0000E+00  0.0000E+00  0.0000E+00
      4.675  0.4215E-02  0.4292E-01  0.4292E-01  0.4292E-01  0.0000E+00  0.0000E+00  0.0000E+00  0.0000E+00  0.0000E+00
      4.766  0.3567E-02  0.3784E-01  0.3784E-01  0.3784E-01  0.0000E+00  0.0000E+00  0.0000E+00  0.0000E+00  0.0000E+00
      4.857  0.3114E-02  0.3362E-01  0.3362E-01  0.3362E-01  0.0000E+00  0.0000E+00  0.0000E+00  0.0000E+00  0.0000E+00
      4.948  0.2636E-02  0.3011E-01  0.3011E-01  0.3011E-01  0.0000E+00  0.0000E+00  0.0000E+00  0.0000E+00  0.0000E+00
      5.040  0.2143E-02  0.2656E-01  0.2656E-01  0.2656E-01  0.0000E+00  0.0000E+00  0.0000E+00  0.0000E+00  0.0000E+00
      5.131  0.1697E-02  0.2323E-01  0.2323E-01  0.2323E-01  0.0000E+00  0.0000E+00  0.0000E+00  0.0000E+00  0.0000E+00
      5.222  0.1265E-02  0.2023E-01  0.2023E-01  0.2023E-01  0.0000E+00  0.0000E+00  0.0000E+00  0.0000E+00  0.0000E+00
      5.313  0.9793E-03  0.1715E-01  0.1715E-01  0.1715E-01  0.0000E+00  0.0000E+00  0.0000E+00  0.0000E+00  0.0000E+00
      5.404  0.6597E-03  0.1386E-01  0.1386E-01  0.1386E-01  0.0000E+00  0.0000E+00  0.0000E+00  0.0000E+00  0.0000E+00