    2    2    1    1
  0.2012531E+02  0.3846767E-09  0.3846767E-09  0.3846767E-09  0.5000000E-15
  1.000000000000000E-004
  CAR 
 Si                                      
      8    511      8
 
  0.0000000E+00  0.0000000E+00  0.0000000E+00  0.5689577E-04
    1       -6.804715   1.000000
    2        5.684482   0.999999
    3        5.684482   0.999984
    4        5.684482   0.999984
    5        8.440519   0.000000
    6        8.440519   0.000000
    7        8.440519   0.000000
    8        9.609103   0.000000
 
  0.3846154E-01  0.0000000E+00  0.0000000E+00  0.4551661E-03
    1       -6.784373   1.000000
    2        5.463283   1.000000
    3        5.649643   0.999999
    4        5.649643   0.999999
    5        8.491681   0.000000
    6        8.491681   0.000000
    7        8.498745   0.000000
    8        9.740668   0.000000
 
  0.7692308E-01  0.0000000E+00  0.0000000E+00  0.4551661E-03
    1       -6.723422   1.000000
    2        4.922092   1.000000
    3        5.554158   1.000000
    4        5.554158   1.000000
    5        8.545834   0.000000
    6        8.632832   0.000000
    7        8.632833   0.000000
    8       10.145684   0.000000
 
  0.1153846E+00  0.0000000E+00  0.0000000E+00  0.4551661E-03
    1       -6.622279   1.000000
    2        4.233492   1.000000
    3        5.418529   1.000000
    4        5.418529   1.000000
    5        8.496711   0.000000
    6        8.833128   0.000000
    7        8.833129   0.000000
    8       10.749446   0.000000
 
  0.1538462E+00  0.0000000E+00  0.0000000E+00  0.4551661E-03
    1       -6.481678   1.000000
    2        3.489725   1.000000
    3        5.263614   1.000000
    4        5.263614   1.000000
    5        8.385704   0.000000
    6        9.053416   0.000000
    7        9.053416   0.000000
    8       11.441182   0.000000
 
  0.1923077E+00  0.0000000E+00  0.0000000E+00  0.4551661E-03
    1       -6.302756   1.000000
    2        2.733787   1.000000
    3        5.105246   1.000000
    4        5.105246   1.000000
    5        8.248319   0.000000
    6        9.252675   0.000000
    7        9.252675   0.000000
    8       12.156971   0.000000
 
  0.2307692E+00  0.0000000E+00  0.0000000E+00  0.4551661E-03
    1       -6.087376   1.000000
    2        1.988162   1.000000
    3        4.953951   1.000000
    4        4.953951   1.000000
    5        8.105324   0.000000
    6        9.395573   0.000000
    7        9.395573   0.000000
    8       12.861327   0.000000
 
  0.2692308E+00  0.0000000E+00  0.0000000E+00  0.4551661E-03
    1       -5.838365   1.000000
    2        1.267153   1.000000
    3        4.816326   1.000000
    4        4.816326   1.000000
    5        7.968855   0.000000
    6        9.464911   0.000000
    7        9.464911   0.000000
    8       13.449645   0.000000
 
  0.3076923E+00  0.0000000E+00  0.0000000E+00  0.4551661E-03
    1       -5.560374   1.000000
    2        0.582323   1.000000
    3        4.696386   1.000000
    4        4.696386   1.000000
    5        7.846240   0.000000
    6        9.468427   0.000000
    7        9.468428   0.000000
    8       13.823401   0.000000
 
  0.3461538E+00  0.0000000E+00  0.0000000E+00  0.4551661E-03
    1       -5.261350   1.000000
    2       -0.054026   1.000000
    3        4.596505   1.000000
    4        4.596505   1.000000
    5        7.741991   0.000000
    6        9.429906   0.000000
    7        9.429906   0.000000
    8       14.185595   0.000000
 
  0.3846154E+00  0.0000000E+00  0.0000000E+00  0.4551661E-03
    1       -4.955489   1.000000
    2       -0.624689   1.000000
    3        4.517998   1.000000
    4        4.517998   1.000000
    5        7.658879   0.000000
    6        9.374888   0.000000
    7        9.374888   0.000000
    8       14.158813   0.000000
 
  0.4230769E+00  0.0000000E+00  0.0000000E+00  0.4551661E-03
    1       -4.669393   1.000000
    2       -1.101166   1.000000
    3        4.461599   1.000000
    4        4.461599   1.000000
    5        7.598581   0.000000
    6        9.323125   0.000000
    7        9.323125   0.000000
    8       14.089005   0.000000
 
  0.4615385E+00  0.0000000E+00  0.0000000E+00  0.4551661E-03
    1       -4.450779   1.000000
    2       -1.434477   1.000000
    3        4.427665   1.000000
    4        4.427665   1.000000
    5        7.562072   0.000000
    6        9.287437   0.000000
    7        9.287437   0.000000
    8       14.035406   0.000000
 
  0.5000000E+00  0.0000000E+00  0.0000000E+00  0.2275831E-03
    1       -4.365638   1.000000
    2       -1.557902   1.000000
    3        4.416340   1.000000
    4        4.416341   1.000000
    5        7.549850   0.000000
    6        9.274806   0.000000
    7        9.274806   0.000000
    8       14.016113   0.000000
 
  0.3846154E-01  0.3846154E-01  0.0000000E+00  0.3413746E-03
    1       -6.777582   1.000000
    2        5.518340   1.000000
    3        5.572352   1.000004
    4        5.572352   1.000004
    5        8.379255   0.000000
    6        8.586894   0.000000
    7        8.586894   0.000000
    8        9.769419   0.000000
 
  0.7692308E-01  0.3846154E-01  0.0000000E+00  0.1365498E-02
    1       -6.730139   1.000000
    2        5.089820   1.000000
    3        5.444137   1.000000
    4        5.543895   1.000000
    5        8.377496   0.000000
    6        8.708798   0.000000
    7        8.763744   0.000000
    8       10.057968   0.000000
 
  0.1153846E+00  0.3846154E-01  0.0000000E+00  0.1365498E-02
    1       -6.642349   1.000000
    2        4.449752   1.000000
    3        5.287143   1.000000
    4        5.464708   1.000000
    5        8.456283   0.000000
    6        8.748085   0.000000
    7        8.990867   0.000000
    8       10.579538   0.000000
 
  0.1538462E+00  0.3846154E-01  0.0000000E+00  0.1365498E-02
    1       -6.514838   1.000000
    2        3.727996   1.000000
    3        5.120466   1.000000
    4        5.337949   1.000000
    5        8.488407   0.000000
    6        8.815463   0.000000
    7        9.232117   0.000000
    8       11.203917   0.000000
 
  0.1923077E+00  0.3846154E-01  0.0000000E+00  0.1365498E-02
    1       -6.348569   1.000000
    2        2.979907   1.000000
    3        4.957662   1.000000
    4        5.186035   1.000000
    5        8.403735   0.000000
    6        8.979695   0.000000
    7        9.449361   0.000000
    8       11.801909   0.000000
 
  0.2307692E+00  0.3846154E-01  0.0000000E+00  0.1365498E-02
    1       -6.145140   1.000000
    2        2.233836   1.000000
    3        4.807563   1.000000
    4        5.026237   1.000000
    5        8.277413   0.000000
    6        9.145735   0.000000
    7        9.607386   0.000000
    8       12.239812   0.000000
 
  0.2692308E+00  0.3846154E-01  0.0000000E+00  0.1365498E-02
    1       -5.906990   1.000000
    2        1.506699   1.000000
    3        4.675678   1.000000
    4        4.870028   1.000000
    5        8.145579   0.000000
    6        9.258565   0.000000
    7        9.685672   0.000000
    8       12.553526   0.000000
 
  0.3076923E+00  0.3846154E-01  0.0000000E+00  0.1365498E-02
    1       -5.638023   1.000000
    2        0.811003   1.000000
    3        4.565319   1.000000
    4        4.724601   1.000000
    5        8.022067   0.000000
    6        9.305584   0.000000
    7        9.687977   0.000000
    8       12.910167   0.000000
 
  0.3461538E+00  0.3846154E-01  0.0000000E+00  0.1365498E-02
    1       -5.344868   1.000000
    2        0.158686   1.000000
    3        4.478356   1.000000
    4        4.594445   1.000000
    5        7.913861   0.000000
    6        9.302731   0.000000
    7        9.636879   0.000000
    8       13.350503   0.000000
 
  0.3846154E+00  0.3846154E-01  0.0000000E+00  0.1365498E-02
    1       -5.039096   1.000000
    2       -0.435084   1.000000
    3        4.415717   1.000000
    4        4.482406   1.000000
    5        7.824938   0.000000
    6        9.276018   0.000000
    7        9.559420   0.000000
    8       13.805350   0.000000
 
  0.4230769E+00  0.3846154E-01  0.0000000E+00  0.1365498E-02
    1       -4.742245   1.000000
    2       -0.946429   1.000000
    3        4.377671   1.000000
    4        4.390362   1.000000
    5        7.757642   0.000000
    6        9.247972   0.000000
    7        9.477782   0.000000
    8       14.060544   0.000000
 
  0.4615385E+00  0.3846154E-01  0.0000000E+00  0.1365498E-02
    1       -4.494131   1.000000
    2       -1.334053   1.000000
    3        4.319640   1.000000
    4        4.364071   1.000000
    5        7.713350   0.000000
    6        9.233749   0.000000
    7        9.407153   0.000000
    8       14.097151   0.000000
 
  0.5000000E+00  0.3846154E-01  0.0000000E+00  0.1365498E-02
    1       -4.357324   1.000000
    2       -1.534402   1.000000
    3        4.271276   1.000000
    4        4.374475   1.000000
    5        7.692822   0.000000
    6        9.241861   0.000000
    7        9.356615   0.000000
    8       14.092268   0.000000
 
 -0.4615385E+00  0.3846154E-01  0.0000000E+00  0.1365498E-02
    1       -4.386339   1.000000
    2       -1.492636   1.000000
    3        4.246120   1.000000
    4        4.408239   1.000000
    5        7.696379   0.000000
    6        9.275575   0.000000
    7        9.330313   0.000000
    8       14.100745   0.000000
 
 -0.4230769E+00  0.3846154E-01  0.0000000E+00  0.1365498E-02
    1       -4.568054   1.000000
    2       -1.221925   1.000000
    3        4.244899   1.000000
    4        4.464569   1.000000
    5        7.723999   0.000000
    6        9.327995   0.000000
    7        9.333711   0.000000
    8       14.124995   0.000000
 
 -0.3846154E+00  0.3846154E-01  0.0000000E+00  0.1365498E-02
    1       -4.838360   1.000000
    2       -0.786916   1.000000
    3        4.268199   1.000000
    4        4.542520   1.000000
    5        7.775301   0.000000
    6        9.344782   0.000000
    7        9.410575   0.000000
    8       14.130139   0.000000
 
 -0.3461538E+00  0.3846154E-01  0.0000000E+00  0.1365498E-02
    1       -5.141512   1.000000
    2       -0.244540   1.000000
    3        4.316403   1.000000
    4        4.640924   1.000000
    5        7.849462   0.000000
    6        9.370200   0.000000
    7        9.495072   0.000000
    8       14.004323   0.000000
 
 -0.3076923E+00  0.3846154E-01  0.0000000E+00  0.1365498E-02
    1       -5.444831   1.000000
    2        0.370817   1.000000
    3        4.389597   1.000000
    4        4.758216   1.000000
    5        7.945013   0.000000
    6        9.386941   0.000000
    7        9.569215   0.000000
    8       13.618338   0.000000
 
 -0.2692308E+00  0.3846154E-01  0.0000000E+00  0.1365498E-02
    1       -5.730883   1.000000
    2        1.038935   1.000000
    3        4.487414   1.000000
    4        4.892160   1.000000
    5        8.059501   0.000000
    6        9.371278   0.000000
    7        9.607437   0.000000
    8       13.192672   0.000000
 
 -0.2307692E+00  0.3846154E-01  0.0000000E+00  0.1365498E-02
    1       -5.990129   1.000000
    2        1.746131   1.000000
    3        4.608820   1.000000
    4        5.039382   1.000000
    5        8.188910   0.000000
    6        9.299382   0.000000
    7        9.580683   0.000000
    8       12.765486   0.000000
 
 -0.1923077E+00  0.3846154E-01  0.0000000E+00  0.1365498E-02
    1       -6.217029   1.000000
    2        2.480458   1.000000
    3        4.751808   1.000000
    4        5.194593   1.000000
    5        8.326669   0.000000
    6        9.161485   0.000000
    7        9.469648   0.000000
    8       12.257772   0.000000
 
 -0.1538462E+00  0.3846154E-01  0.0000000E+00  0.1365498E-02
    1       -6.408283   1.000000
    2        3.227912   1.000000
    3        4.912974   1.000000
    4        5.349455   1.000000
    5        8.461761   0.000000
    6        8.973266   0.000000
    7        9.280314   0.000000
    8       11.661682   0.000000
 
 -0.1153846E+00  0.3846154E-01  0.0000000E+00  0.1365498E-02
    1       -6.561757   1.000000
    2        3.967348   1.000000
    3        5.087075   1.000000
    4        5.491148   1.000000
    5        8.574650   0.000000
    6        8.771184   0.000000
    7        9.044806   0.000000
    8       11.021858   0.000000
 
 -0.7692308E-01  0.3846154E-01  0.0000000E+00  0.1365498E-02
    1       -6.676093   1.000000
    2        4.658619   1.000000
    3        5.267882   1.000000
    4        5.601539   1.000000
    5        8.598995   0.000000
    6        8.626240   0.000000
    7        8.813314   0.000000
    8       10.417148   0.000000
 
 -0.3846154E-01  0.3846154E-01  0.0000000E+00  0.6827492E-03
    1       -6.750478   1.000000
    2        5.206790   1.000000
    3        5.460700   1.000000
    4        5.659525   1.000000
    5        8.496934   0.000000
    6        8.555879   0.000000
    7        8.649727   0.000000
    8        9.957002   0.000000
 
  0.7692308E-01  0.7692308E-01  0.0000000E+00  0.3413746E-03
    1       -6.696205   1.000000
    2        5.087203   1.000000
    3        5.291731   1.000000
    4        5.291731   1.000000
    5        8.210385   0.000000
    6        8.969877   0.000000
    7        8.969877   0.000000
    8       10.158388   0.000000
 
  0.1153846E+00  0.7692308E-01  0.0000000E+00  0.1365498E-02
    1       -6.621845   1.000000
    2        4.589219   1.000000
    3        5.118667   1.000000
    4        5.231234   1.000000
    5        8.170046   0.000000
    6        9.118809   0.000000
    7        9.221466   0.000000
    8       10.499450   0.000000
 
  0.1538462E+00  0.7692308E-01  0.0000000E+00  0.1365498E-02
    1       -6.507552   1.000000
    2        3.921684   1.000000
    3        4.942208   1.000000
    4        5.150961   1.000000
    5        8.237196   0.000000
    6        9.128193   0.000000
    7        9.485643   0.000000
    8       10.968719   0.000000
 
  0.1923077E+00  0.7692308E-01  0.0000000E+00  0.1365498E-02
    1       -6.354156   1.000000
    2        3.202320   1.000000
    3        4.774333   1.000000
    4        5.019793   1.000000
    5        8.344728   0.000000
    6        9.100930   0.000000
    7        9.726796   0.000000
    8       11.341572   0.000000
 
  0.2307692E+00  0.7692308E-01  0.0000000E+00  0.1365498E-02
    1       -6.163022   1.000000
    2        2.470238   1.000000
    3        4.622864   1.000000
    4        4.859538   1.000000
    5        8.405863   0.000000
    6        9.114136   0.000000
    7        9.909299   0.000000
    8       11.539253   0.000000
 
  0.2692308E+00  0.7692308E-01  0.0000000E+00  0.1365498E-02
    1       -5.936244   1.000000
    2        1.747376   1.000000
    3        4.492741   1.000000
    4        4.688884   1.000000
    5        8.381983   0.000000
    6        9.173443   0.000000
    7       10.008121   0.000000
    8       11.711612   0.000000
 
  0.3076923E+00  0.7692308E-01  0.0000000E+00  0.1365498E-02
    1       -5.677113   1.000000
    2        1.048696   1.000000
    3        4.386988   1.000000
    4        4.520360   1.000000
    5        8.307326   0.000000
    6        9.222871   0.000000
    7       10.021247   0.000000
    8       11.984006   0.000000
 
  0.3461538E+00  0.7692308E-01  0.0000000E+00  0.1365498E-02
    1       -5.391145   1.000000
    2        0.386879   1.000000
    3        4.307340   1.000000
    4        4.361872   1.000000
    5        8.219503   0.000000
    6        9.234575   0.000000
    7        9.968639   0.000000
    8       12.384110   0.000000
 
  0.3846154E+00  0.7692308E-01  0.0000000E+00  0.1365498E-02
    1       -5.087812   1.000000
    2       -0.223913   1.000000
    3        4.218488   1.000000
    4        4.254629   1.000000
    5        8.137873   0.000000
    6        9.220203   0.000000
    7        9.878358   0.000000
    8       12.885763   0.000000
 
  0.4230769E+00  0.7692308E-01  0.0000000E+00  0.1365498E-02
    1       -4.784501   1.000000
    2       -0.763169   1.000000
    3        4.093599   1.000000
    4        4.229032   1.000000
    5        8.071674   0.000000
    6        9.201226   0.000000
    7        9.775050   0.000000
    8       13.435326   0.000000
 
  0.4615385E+00  0.7692308E-01  0.0000000E+00  0.1365498E-02
    1       -4.513856   1.000000
    2       -1.196285   1.000000
    3        3.989653   1.000000
    4        4.230241   1.000000
    5        8.025528   0.000000
    6        9.194259   0.000000
    7        9.676312   0.000000
    8       13.927423   0.000000
 
  0.5000000E+00  0.7692308E-01  0.0000000E+00  0.1365498E-02
    1       -4.331859   1.000000
    2       -1.465970   1.000000
    3        3.908546   1.000000
    4        4.257561   1.000000
    5        8.001717   0.000000
    6        9.209173   0.000000
    7        9.593234   0.000000
    8       14.203430   0.000000
 
 -0.4615385E+00  0.7692308E-01  0.0000000E+00  0.1365498E-02
    1       -4.303117   1.000000
    2       -1.507012   1.000000
    3        3.851849   1.000000
    4        4.309977   1.000000
    5        8.001189   0.000000
    6        9.250433   0.000000
    7        9.531707   0.000000
    8       14.290096   0.000000
 
 -0.4230769E+00  0.7692308E-01  0.0000000E+00  0.1365498E-02
    1       -4.440709   1.000000
    2       -1.306293   1.000000
    3        3.820906   1.000000
    4        4.386153   1.000000
    5        8.024061   0.000000
    6        9.318167   0.000000
    7        9.493172   0.000000
    8       14.288979   0.000000
 
 -0.3846154E+00  0.7692308E-01  0.0000000E+00  0.1365498E-02
    1       -4.689491   1.000000
    2       -0.919373   1.000000
    3        3.816870   1.000000
    4        4.484466   1.000000
    5        8.069885   0.000000
    6        9.408279   0.000000
    7        9.474578   0.000000
    8       14.178876   0.000000
 
 -0.3461538E+00  0.7692308E-01  0.0000000E+00  0.1365498E-02
    1       -4.986630   1.000000
    2       -0.410260   1.000000
    3        3.840705   1.000000
    4        4.602884   1.000000
    5        8.137712   0.000000
    6        9.467479   0.000000
    7        9.511529   0.000000
    8       13.880729   0.000000
 
 -0.3076923E+00  0.7692308E-01  0.0000000E+00  0.1365498E-02
    1       -5.292401   1.000000
    2        0.179466   1.000000
    3        3.893187   1.000000
    4        4.738833   1.000000
    5        8.225999   0.000000
    6        9.456694   0.000000
    7        9.611509   0.000000
    8       13.395464   0.000000
 
 -0.2692308E+00  0.7692308E-01  0.0000000E+00  0.1365498E-02
    1       -5.585386   1.000000
    2        0.825391   1.000000
    3        3.974901   1.000000
    4        4.888871   1.000000
    5        8.332319   0.000000
    6        9.420215   0.000000
    7        9.682044   0.000000
    8       12.967176   0.000000
 
 -0.2307692E+00  0.7692308E-01  0.0000000E+00  0.1365498E-02
    1       -5.854100   1.000000
    2        1.511184   1.000000
    3        4.086326   1.000000
    4        5.048147   1.000000
    5        8.452796   0.000000
    6        9.334807   0.000000
    7        9.687489   0.000000
    8       12.542200   0.000000
 
 -0.1923077E+00  0.7692308E-01  0.0000000E+00  0.1365498E-02
    1       -6.091982   1.000000
    2        2.222451   1.000000
    3        4.228187   1.000000
    4        5.209557   1.000000
    5        8.581120   0.000000
    6        9.190535   0.000000
    7        9.594872   0.000000
    8       12.170627   0.000000
 
 -0.1538462E+00  0.7692308E-01  0.0000000E+00  0.1365498E-02
    1       -6.295138   1.000000
    2        2.941057   1.000000
    3        4.402676   1.000000
    4        5.362544   1.000000
    5        8.706726   0.000000
    6        9.003940   0.000000
    7        9.399103   0.000000
    8       11.796200   0.000000
 
 -0.1153846E+00  0.7692308E-01  0.0000000E+00  0.1365498E-02
    1       -6.461171   1.000000
    2        3.635524   1.000000
    3        4.617994   1.000000
    4        5.491851   1.000000
    5        8.811127   0.000000
    6        8.813891   0.000000
    7        9.133810   0.000000
    8       11.350241   0.000000
 
 -0.7692308E-01  0.7692308E-01  0.0000000E+00  0.6827492E-03
    1       -6.588484   1.000000
    2        4.238584   1.000000
    3        4.901256   1.000000
    4        5.577881   1.000000
    5        8.666052   0.000000
    6        8.839269   0.000000
    7        8.877363   0.000000
    8       10.854698   0.000000
 
  0.1153846E+00  0.1153846E+00  0.0000000E+00  0.3413746E-03
    1       -6.560887   1.000000
    2        4.504617   1.000000
    3        4.934070   1.000000
    4        4.934070   1.000000
    5        7.968770   0.000000
    6        9.496890   0.000000
    7        9.496890   0.000000
    8       10.539625   0.000000
 
  0.1538462E+00  0.1153846E+00  0.0000000E+00  0.1365498E-02
    1       -6.459857   1.000000
    2        4.010548   1.000000
    3        4.749490   1.000000
    4        4.827871   1.000000
    5        7.908643   0.000000
    6        9.657521   0.000000
    7        9.786927   0.000000
    8       10.732109   0.000000
 
  0.1923077E+00  0.1153846E+00  0.0000000E+00  0.1365498E-02
    1       -6.319464   1.000000
    2        3.362039   1.000000
    3        4.576067   1.000000
    4        4.722133   1.000000
    5        7.971206   0.000000
    6        9.649898   0.000000
    7       10.058052   0.000000
    8       10.891096   0.000000
 
  0.2307692E+00  0.1153846E+00  0.0000000E+00  0.1365498E-02
    1       -6.140878   1.000000
    2        2.669169   1.000000
    3        4.421175   1.000000
    4        4.570958   1.000000
    5        8.094955   0.000000
    6        9.605806   0.000000
    7       10.274149   0.000000
    8       10.931885   0.000000
 
  0.2692308E+00  0.1153846E+00  0.0000000E+00  0.1365498E-02
    1       -5.925872   1.000000
    2        1.967959   1.000000
    3        4.289558   1.000000
    4        4.392125   1.000000
    5        8.206623   0.000000
    6        9.580468   0.000000
    7       10.405166   0.000000
    8       10.973015   0.000000
 
  0.3076923E+00  0.1153846E+00  0.0000000E+00  0.1365498E-02
    1       -5.677237   1.000000
    2        1.278955   1.000000
    3        4.184183   1.000000
    4        4.204183   1.000000
    5        8.259807   0.000000
    6        9.569102   0.000000
    7       10.441652   0.000000
    8       11.129977   0.000000
 
  0.3461538E+00  0.1153846E+00  0.0000000E+00  0.1365498E-02
    1       -5.399568   1.000000
    2        0.617432   1.000000
    3        4.019894   1.000000
    4        4.106818   1.000000
    5        8.257159   0.000000
    6        9.543479   0.000000
    7       10.399242   0.000000
    8       11.452165   0.000000
 
  0.3846154E+00  0.1153846E+00  0.0000000E+00  0.1365498E-02
    1       -5.100626   1.000000
    2       -0.002053   1.000000
    3        3.847424   1.000000
    4        4.058369   1.000000
    5        8.226831   0.000000
    6        9.499658   0.000000
    7       10.306424   0.000000
    8       11.921513   0.000000
 
  0.4230769E+00  0.1153846E+00  0.0000000E+00  0.1365498E-02
    1       -4.794445   1.000000
    2       -0.560967   1.000000
    3        3.692109   1.000000
    4        4.039091   1.000000
    5        8.193796   0.000000
    6        9.453104   0.000000
    7       10.190495   0.000000
    8       12.494480   0.000000
 
  0.4615385E+00  0.1153846E+00  0.0000000E+00  0.1365498E-02
    1       -4.507484   1.000000
    2       -1.029971   1.000000
    3        3.557680   1.000000
    4        4.048724   1.000000
    5        8.173116   0.000000
    6        9.418513   0.000000
    7       10.071740   0.000000
    8       13.128417   0.000000
 
  0.5000000E+00  0.1153846E+00  0.0000000E+00  0.1365498E-02
    1       -4.287804   1.000000
    2       -1.359151   1.000000
    3        3.446930   1.000000
    4        4.086560   1.000000
    5        8.172411   0.000000
    6        9.405080   0.000000
    7        9.963359   0.000000
    8       13.772698   0.000000
 
 -0.4615385E+00  0.1153846E+00  0.0000000E+00  0.1365498E-02
    1       -4.202839   1.000000
    2       -1.480061   1.000000
    3        3.362101   1.000000
    4        4.151479   1.000000
    5        8.194680   0.000000
    6        9.417767   0.000000
    7        9.872870   0.000000
    8       14.318696   0.000000
 
 -0.4230769E+00  0.1153846E+00  0.0000000E+00  0.1365498E-02
    1       -4.290106   1.000000
    2       -1.354945   1.000000
    3        3.305099   1.000000
    4        4.241934   1.000000
    5        8.240119   0.000000
    6        9.458352   0.000000
    7        9.803120   0.000000
    8       14.509498   0.000000
 
 -0.3846154E+00  0.1153846E+00  0.0000000E+00  0.1365498E-02
    1       -4.511085   1.000000
    2       -1.022742   1.000000
    3        3.277622   1.000000
    4        4.355887   1.000000
    5        8.307241   0.000000
    6        9.525337   0.000000
    7        9.752406   0.000000
    8       14.268356   0.000000
 
 -0.3461538E+00  0.1153846E+00  0.0000000E+00  0.1365498E-02
    1       -4.798441   1.000000
    2       -0.552088   1.000000
    3        3.281295   1.000000
    4        4.490714   1.000000
    5        8.393625   0.000000
    6        9.612615   0.000000
    7        9.713676   0.000000
    8       13.803309   0.000000
 
 -0.3076923E+00  0.1153846E+00  0.0000000E+00  0.1365498E-02
    1       -5.104523   1.000000
    2        0.006956   1.000000
    3        3.317829   1.000000
    4        4.642987   1.000000
    5        8.496298   0.000000
    6        9.673019   0.000000
    7        9.706634   0.000000
    8       13.249085   0.000000
 
 -0.2692308E+00  0.1153846E+00  0.0000000E+00  0.1365498E-02
    1       -5.403139   1.000000
    2        0.624122   1.000000
    3        3.389376   1.000000
    4        4.808109   1.000000
    5        8.611698   0.000000
    6        9.609217   0.000000
    7        9.781680   0.000000
    8       12.755496   0.000000
 
 -0.2307692E+00  0.1153846E+00  0.0000000E+00  0.1365498E-02
    1       -5.680385   1.000000
    2        1.278298   1.000000
    3        3.499382   1.000000
    4        4.979717   1.000000
    5        8.735052   0.000000
    6        9.499390   0.000000
    7        9.795667   0.000000
    8       12.325359   0.000000
 
 -0.1923077E+00  0.1153846E+00  0.0000000E+00  0.1365498E-02
    1       -5.928564   1.000000
    2        1.948449   1.000000
    3        3.654800   1.000000
    4        5.148789   1.000000
    5        8.858862   0.000000
    6        9.335102   0.000000
    7        9.700375   0.000000
    8       12.019328   0.000000
 
 -0.1538462E+00  0.1153846E+00  0.0000000E+00  0.1365498E-02
    1       -6.143105   1.000000
    2        2.602958   1.000000
    3        3.871832   1.000000
    4        5.302503   1.000000
    5        8.968834   0.000000
    6        9.136808   0.000000
    7        9.483540   0.000000
    8       11.819145   0.000000
 
 -0.1153846E+00  0.1153846E+00  0.0000000E+00  0.6827492E-03
    1       -6.321230   1.000000
    2        3.185658   1.000000
    3        4.184881   1.000000
    4        5.423558   1.000000
    5        8.947495   0.000000
    6        9.015141   0.000000
    7        9.219211   0.000000
    8       11.626666   0.000000
 
  0.1538462E+00  0.1538462E+00  0.0000000E+00  0.3413746E-03
    1       -6.372041   1.000000
    2        3.845383   1.000000
    3        4.558039   1.000000
    4        4.558039   1.000000
    5        7.691776   0.000000
    6       10.107567   0.000000
    7       10.107567   0.000000
    8       10.526274   0.000000
 
  0.1923077E+00  0.1538462E+00  0.0000000E+00  0.1365498E-02
    1       -6.244692   1.000000
    2        3.377237   1.000000
    3        4.378790   1.000000
    4        4.413887   1.000000
    5        7.627522   0.000000
    6       10.176642   0.000000
    7       10.415829   0.000000
    8       10.538425   0.000000
 
  0.2307692E+00  0.1538462E+00  0.0000000E+00  0.1365498E-02
    1       -6.078803   1.000000
    2        2.775161   1.000000
    3        4.219037   1.000000
    4        4.265879   1.000000
    5        7.694297   0.000000
    6       10.051114   0.000000
    7       10.598497   0.000000
    8       10.675362   0.000000
 
  0.2692308E+00  0.1538462E+00  0.0000000E+00  0.1365498E-02
    1       -5.875864   1.000000
    2        2.127602   1.000000
    3        4.080673   1.000000
    4        4.083559   1.000000
    5        7.825763   0.000000
    6       10.000859   0.000000
    7       10.565630   0.000000
    8       10.851102   0.000000
 
  0.3076923E+00  0.1538462E+00  0.0000000E+00  0.1365498E-02
    1       -5.638247   1.000000
    2        1.470672   1.000000
    3        3.873711   1.000000
    4        3.975432   1.000000
    5        7.946183   0.000000
    6       10.070563   0.000000
    7       10.516597   0.000000
    8       10.924616   0.000000
 
  0.3461538E+00  0.1538462E+00  0.0000000E+00  0.1365498E-02
    1       -5.369792   1.000000
    2        0.826013   1.000000
    3        3.662623   1.000000
    4        3.896534   1.000000
    5        8.012602   0.000000
    6       10.160400   0.000000
    7       10.610801   0.000000
    8       10.904961   0.000000
 
  0.3846154E+00  0.1538462E+00  0.0000000E+00  0.1365498E-02
    1       -5.076852   1.000000
    2        0.210910   1.000000
    3        3.459711   1.000000
    4        3.847908   1.000000
    5        8.031691   0.000000
    6       10.126629   0.000000
    7       10.820150   0.000000
    8       10.988818   0.000000
 
  0.4230769E+00  0.1538462E+00  0.0000000E+00  0.1365498E-02
    1       -4.770767   1.000000
    2       -0.356274   1.000000
    3        3.272888   1.000000
    4        3.829952   1.000000
    5        8.032024   0.000000
    6       10.054143   0.000000
    7       10.700460   0.000000
    8       11.535413   0.000000
 