PROCAR lm decomposed
# of k-points:  511         # of bands:    8         # of ions:    2

 k-point     1 :    0.00000000 0.00000000 0.00000000     weight = 0.00005690

band     1 # energy   -6.80471537 # occ.  2.00000000
 
ion      s     py     pz     px    dxy    dyz    dz2    dxz  x2-y2    tot
    1  0.215  0.000  0.000  0.000  0.000  0.000  0.000  0.000  0.000  0.215
    2  0.215  0.000  0.000  0.000  0.000  0.000  0.000  0.000  0.000  0.215
tot    0.430  0.000  0.000  0.000  0.000  0.000  0.000  0.000  0.000  0.430
 
band     2 # energy    5.68448209 # occ.  1.99999819
 
ion      s     py     pz     px    dxy    dyz    dz2    dxz  x2-y2    tot
    1  0.000  0.068  0.137  0.014  0.000  0.000  0.000  0.000  0.000  0.218
    2  0.000  0.068  0.137  0.014  0.000  0.000  0.000  0.000  0.000  0.218
tot    0.000  0.135  0.274  0.027  0.000  0.000  0.000  0.000  0.000  0.436
 
band     3 # energy    5.68448210 # occ.  1.99996737
 
ion      s     py     pz     px    dxy    dyz    dz2    dxz  x2-y2    tot
    1  0.000  0.073  0.005  0.139  0.000  0.000  0.000  0.000  0.000  0.218
    2  0.000  0.073  0.005  0.139  0.000  0.000  0.000  0.000  0.000  0.218
tot    0.000  0.147  0.011  0.278  0.000  0.000  0.000  0.000  0.000  0.436
 
band     4 # energy    5.68448218 # occ.  1.99996735
 
ion      s     py     pz     px    dxy    dyz    dz2    dxz  x2-y2    tot
    1  0.000  0.077  0.076  0.065  0.000  0.000  0.000  0.000  0.000  0.218
    2  0.000  0.077  0.076  0.065  0.000  0.000  0.000  0.000  0.000  0.218
tot    0.000  0.154  0.152  0.130  0.000  0.000  0.000  0.000  0.000  0.436
 
band     5 # energy    8.44051923 # occ.  0.00000000
 
ion      s     py     pz     px    dxy    dyz    dz2    dxz  x2-y2    tot
    1  0.000  0.094  0.033  0.025  0.000  0.000  0.000  0.000  0.000  0.152
    2  0.000  0.094  0.033  0.025  0.000  0.000  0.000  0.000  0.000  0.152
tot    0.000  0.188  0.066  0.050  0.000  0.000  0.000  0.000  0.000  0.305
 
band     6 # energy    8.44051926 # occ.  0.00000000
 
ion      s     py     pz     px    dxy    dyz    dz2    dxz  x2-y2    tot
    1  0.000  0.000  0.070  0.082  0.000  0.000  0.000  0.000  0.000  0.152
    2  0.000  0.000  0.070  0.082  0.000  0.000  0.000  0.000  0.000  0.152
tot    0.000  0.000  0.140  0.165  0.000  0.000  0.000  0.000  0.000  0.305
 
band     7 # energy    8.44051941 # occ.  0.00000000
 
ion      s     py     pz     px    dxy    dyz    dz2    dxz  x2-y2    tot
    1  0.000  0.058  0.049  0.045  0.000  0.000  0.000  0.000  0.000  0.152
    2  0.000  0.058  0.049  0.045  0.000  0.000  0.000  0.000  0.000  0.152
tot    0.000  0.116  0.099  0.090  0.000  0.000  0.000  0.000  0.000  0.305
 
band     8 # energy    9.60910253 # occ.  0.00000000
 
ion      s     py     pz     px    dxy    dyz    dz2    dxz  x2-y2    tot
    1  0.361  0.000  0.000  0.000  0.000  0.000  0.000  0.000  0.000  0.361
    2  0.361  0.000  0.000  0.000  0.000  0.000  0.000  0.000  0.000  0.361
tot    0.721  0.000  0.000  0.000  0.000  0.000  0.000  0.000  0.000  0.721
 

 k-point     2 :    0.03846154 0.00000000 0.00000000     weight = 0.00045517

band     1 # energy   -6.78437337 # occ.  2.00000000
 
ion      s     py     pz     px    dxy    dyz    dz2    dxz  x2-y2    tot
    1  0.215  0.000  0.000  0.000  0.000  0.000  0.000  0.000  0.000  0.215
    2  0.215  0.000  0.000  0.000  0.000  0.000  0.000  0.000  0.000  0.215
tot    0.429  0.000  0.000  0.000  0.000  0.000  0.000  0.000  0.000  0.430
 
band     2 # energy    5.46328250 # occ.  2.00000020
 
ion      s     py     pz     px    dxy    dyz    dz2    dxz  x2-y2    tot
    1  0.012  0.069  0.069  0.069  0.000  0.000  0.000  0.000  0.000  0.219
    2  0.012  0.069  0.069  0.069  0.000  0.000  0.000  0.000  0.000  0.219
tot    0.024  0.138  0.138  0.138  0.000  0.000  0.000  0.000  0.000  0.437
 
band     3 # energy    5.64964253 # occ.  1.99999812
 
ion      s     py     pz     px    dxy    dyz    dz2    dxz  x2-y2    tot
    1  0.000  0.109  0.108  0.000  0.000  0.000  0.000  0.000  0.000  0.217
    2  0.000  0.109  0.108  0.000  0.000  0.000  0.000  0.000  0.000  0.217
tot    0.000  0.219  0.216  0.000  0.000  0.000  0.000  0.000  0.000  0.435
 
band     4 # energy    5.64964261 # occ.  1.99999812
 
ion      s     py     pz     px    dxy    dyz    dz2    dxz  x2-y2    tot
    1  0.000  0.036  0.037  0.145  0.000  0.000  0.000  0.000  0.000  0.217
    2  0.000  0.036  0.037  0.145  0.000  0.000  0.000  0.000  0.000  0.217
tot    0.000  0.071  0.074  0.290  0.000  0.000  0.000  0.000  0.000  0.435
 
band     5 # energy    8.49168058 # occ.  0.00000000
 
ion      s     py     pz     px    dxy    dyz    dz2    dxz  x2-y2    tot
    1  0.000  0.070  0.082  0.000  0.000  0.000  0.000  0.000  0.000  0.153
    2  0.000  0.070  0.082  0.000  0.000  0.000  0.000  0.000  0.000  0.153
tot    0.000  0.141  0.164  0.001  0.000  0.000  0.000  0.000  0.000  0.306
 
band     6 # energy    8.49168073 # occ.  0.00000000
 
ion      s     py     pz     px    dxy    dyz    dz2    dxz  x2-y2    tot
    1  0.000  0.032  0.020  0.101  0.000  0.000  0.000  0.000  0.000  0.153
    2  0.000  0.032  0.020  0.101  0.000  0.000  0.000  0.000  0.000  0.153
tot    0.000  0.063  0.040  0.203  0.000  0.000  0.000  0.000  0.000  0.306
 
band     7 # energy    8.49874478 # occ.  0.00000000
 
ion      s     py     pz     px    dxy    dyz    dz2    dxz  x2-y2    tot
    1  0.007  0.050  0.050  0.050  0.000  0.000  0.000  0.000  0.000  0.156
    2  0.007  0.050  0.050  0.050  0.000  0.000  0.000  0.000  0.000  0.156
tot    0.014  0.099  0.099  0.099  0.000  0.000  0.000  0.000  0.000  0.311
 
band     8 # energy    9.74066839 # occ.  0.00000000
 
ion      s     py     pz     px    dxy    dyz    dz2    dxz  x2-y2    tot
    1  0.343  0.004  0.004  0.004  0.000  0.000  0.000  0.000  0.000  0.355
    2  0.343  0.004  0.004  0.004  0.000  0.000  0.000  0.000  0.000  0.355
tot    0.687  0.008  0.008  0.008  0.000  0.000  0.000  0.000  0.000  0.711
 

 k-point     3 :    0.07692308 0.00000000 0.00000000     weight = 0.00045517

band     1 # energy   -6.72342164 # occ.  2.00000000
 
ion      s     py     pz     px    dxy    dyz    dz2    dxz  x2-y2    tot
    1  0.214  0.000  0.000  0.000  0.000  0.000  0.000  0.000  0.000  0.215
    2  0.214  0.000  0.000  0.000  0.000  0.000  0.000  0.000  0.000  0.215
tot    0.429  0.001  0.001  0.001  0.000  0.000  0.000  0.000  0.000  0.430
 
band     2 # energy    4.92209180 # occ.  2.00000000
 
ion      s     py     pz     px    dxy    dyz    dz2    dxz  x2-y2    tot
    1  0.034  0.062  0.062  0.062  0.000  0.000  0.000  0.000  0.000  0.220
    2  0.034  0.062  0.062  0.062  0.000  0.000  0.000  0.000  0.000  0.220
tot    0.068  0.124  0.124  0.124  0.000  0.000  0.000  0.000  0.000  0.440
 
band     3 # energy    5.55415780 # occ.  2.00000000
 
ion      s     py     pz     px    dxy    dyz    dz2    dxz  x2-y2    tot
    1  0.000  0.108  0.109  0.000  0.000  0.000  0.000  0.000  0.000  0.216
    2  0.000  0.108  0.109  0.000  0.000  0.000  0.000  0.000  0.000  0.216
tot    0.000  0.215  0.217  0.000  0.000  0.000  0.000  0.000  0.000  0.433
 
band     4 # energy    5.55415788 # occ.  2.00000000
 
ion      s     py     pz     px    dxy    dyz    dz2    dxz  x2-y2    tot
    1  0.000  0.036  0.036  0.144  0.000  0.000  0.000  0.000  0.000  0.216
    2  0.000  0.036  0.036  0.144  0.000  0.000  0.000  0.000  0.000  0.216
tot    0.000  0.073  0.071  0.288  0.000  0.000  0.000  0.000  0.000  0.433
 
band     5 # energy    8.54583405 # occ.  0.00000000
 
ion      s     py     pz     px    dxy    dyz    dz2    dxz  x2-y2    tot
    1  0.042  0.043  0.043  0.043  0.000  0.000  0.000  0.000  0.000  0.171
    2  0.042  0.043  0.043  0.043  0.000  0.000  0.000  0.000  0.000  0.171
tot    0.085  0.086  0.086  0.086  0.000  0.000  0.000  0.000  0.000  0.342
 
band     6 # energy    8.63283250 # occ.  0.00000000
 
ion      s     py     pz     px    dxy    dyz    dz2    dxz  x2-y2    tot
    1  0.000  0.071  0.083  0.000  0.000  0.000  0.000  0.000  0.000  0.154
    2  0.000  0.071  0.083  0.000  0.000  0.000  0.000  0.000  0.000  0.154
tot    0.000  0.142  0.166  0.001  0.000  0.000  0.000  0.000  0.000  0.309
 
band     7 # energy    8.63283264 # occ.  0.00000000
 
ion      s     py     pz     px    dxy    dyz    dz2    dxz  x2-y2    tot
    1  0.000  0.032  0.020  0.102  0.000  0.000  0.000  0.000  0.000  0.154
    2  0.000  0.032  0.020  0.102  0.000  0.000  0.000  0.000  0.000  0.154
tot    0.000  0.064  0.040  0.205  0.000  0.000  0.000  0.000  0.000  0.309
 
band     8 # energy   10.14568402 # occ.  0.00000000
 
ion      s     py     pz     px    dxy    dyz    dz2    dxz  x2-y2    tot
    1  0.289  0.015  0.015  0.015  0.000  0.000  0.000  0.000  0.000  0.336
    2  0.289  0.015  0.015  0.015  0.000  0.000  0.000  0.000  0.000  0.336
tot    0.579  0.031  0.031  0.031  0.000  0.000  0.000  0.000  0.000  0.672
 

 k-point     4 :    0.11538462 0.00000000 0.00000000     weight = 0.00045517

band     1 # energy   -6.62227854 # occ.  2.00000000
 
ion      s     py     pz     px    dxy    dyz    dz2    dxz  x2-y2    tot
    1  0.214  0.001  0.001  0.001  0.000  0.000  0.000  0.000  0.000  0.216
    2  0.214  0.001  0.001  0.001  0.000  0.000  0.000  0.000  0.000  0.216
tot    0.428  0.001  0.001  0.001  0.000  0.000  0.000  0.000  0.000  0.432
 
band     2 # energy    4.23349203 # occ.  2.00000000
 
ion      s     py     pz     px    dxy    dyz    dz2    dxz  x2-y2    tot
    1  0.053  0.056  0.056  0.056  0.000  0.000  0.000  0.000  0.000  0.220
    2  0.053  0.056  0.056  0.056  0.000  0.000  0.000  0.000  0.000  0.220
tot    0.106  0.112  0.112  0.112  0.000  0.000  0.000  0.000  0.000  0.440
 
band     3 # energy    5.41852892 # occ.  2.00000000
 
ion      s     py     pz     px    dxy    dyz    dz2    dxz  x2-y2    tot
    1  0.000  0.106  0.109  0.000  0.000  0.000  0.000  0.000  0.000  0.215
    2  0.000  0.106  0.109  0.000  0.000  0.000  0.000  0.000  0.000  0.215
tot    0.000  0.212  0.219  0.000  0.000  0.000  0.000  0.000  0.000  0.431
 
band     4 # energy    5.41852901 # occ.  2.00000000
 
ion      s     py     pz     px    dxy    dyz    dz2    dxz  x2-y2    tot
    1  0.000  0.038  0.034  0.144  0.000  0.000  0.000  0.000  0.000  0.215
    2  0.000  0.038  0.034  0.144  0.000  0.000  0.000  0.000  0.000  0.215
tot    0.000  0.075  0.068  0.287  0.000  0.000  0.000  0.000  0.000  0.431
 
band     5 # energy    8.49671089 # occ.  0.00000000
 
ion      s     py     pz     px    dxy    dyz    dz2    dxz  x2-y2    tot
    1  0.083  0.034  0.034  0.034  0.000  0.000  0.000  0.000  0.000  0.186
    2  0.083  0.034  0.034  0.034  0.000  0.000  0.000  0.000  0.000  0.186
tot    0.165  0.069  0.069  0.069  0.000  0.000  0.000  0.000  0.000  0.372
 
band     6 # energy    8.83312844 # occ.  0.00000000
 
ion      s     py     pz     px    dxy    dyz    dz2    dxz  x2-y2    tot
    1  0.000  0.072  0.083  0.000  0.000  0.000  0.000  0.000  0.000  0.156
    2  0.000  0.072  0.083  0.000  0.000  0.000  0.000  0.000  0.000  0.156
tot    0.000  0.143  0.167  0.001  0.000  0.000  0.000  0.000  0.000  0.311
 
band     7 # energy    8.83312858 # occ.  0.00000000
 
ion      s     py     pz     px    dxy    dyz    dz2    dxz  x2-y2    tot
    1  0.000  0.032  0.020  0.103  0.000  0.000  0.000  0.000  0.000  0.156
    2  0.000  0.032  0.020  0.103  0.000  0.000  0.000  0.000  0.000  0.156
tot    0.000  0.064  0.041  0.206  0.000  0.000  0.000  0.000  0.000  0.311
 
band     8 # energy   10.74944559 # occ.  0.00000000
 
ion      s     py     pz     px    dxy    dyz    dz2    dxz  x2-y2    tot
    1  0.234  0.027  0.027  0.027  0.000  0.000  0.000  0.000  0.000  0.315
    2  0.234  0.027  0.027  0.027  0.000  0.000  0.000  0.000  0.000  0.315
tot    0.469  0.054  0.054  0.054  0.000  0.000  0.000  0.000  0.000  0.631
 

 k-point     5 :    0.15384615 0.00000000 0.00000000     weight = 0.00045517

band     1 # energy   -6.48167843 # occ.  2.00000000
 
ion      s     py     pz     px    dxy    dyz    dz2    dxz  x2-y2    tot
    1  0.213  0.001  0.001  0.001  0.000  0.000  0.000  0.000  0.000  0.217
    2  0.213  0.001  0.001  0.001  0.000  0.000  0.000  0.000  0.000  0.217
tot    0.426  0.002  0.002  0.002  0.000  0.000  0.000  0.000  0.000  0.433
 
band     2 # energy    3.48972478 # occ.  2.00000000
 
ion      s     py     pz     px    dxy    dyz    dz2    dxz  x2-y2    tot
    1  0.068  0.051  0.051  0.051  0.000  0.000  0.000  0.000  0.000  0.220
    2  0.068  0.051  0.051  0.051  0.000  0.000  0.000  0.000  0.000  0.220
tot    0.135  0.101  0.101  0.101  0.000  0.000  0.000  0.000  0.000  0.439
 
band     3 # energy    5.26361396 # occ.  2.00000000
 
ion      s     py     pz     px    dxy    dyz    dz2    dxz  x2-y2    tot
    1  0.000  0.105  0.110  0.000  0.000  0.000  0.000  0.000  0.000  0.215
    2  0.000  0.105  0.110  0.000  0.000  0.000  0.000  0.000  0.000  0.215
tot    0.000  0.209  0.220  0.000  0.000  0.000  0.000  0.000  0.000  0.430
 
band     4 # energy    5.26361406 # occ.  2.00000000
 
ion      s     py     pz     px    dxy    dyz    dz2    dxz  x2-y2    tot
    1  0.000  0.039  0.033  0.143  0.000  0.000  0.000  0.000  0.000  0.215
    2  0.000  0.039  0.033  0.143  0.000  0.000  0.000  0.000  0.000  0.215
tot    0.000  0.077  0.066  0.286  0.000  0.000  0.000  0.000  0.000  0.430
 
band     5 # energy    8.38570404 # occ.  0.00000000
 
ion      s     py     pz     px    dxy    dyz    dz2    dxz  x2-y2    tot
    1  0.111  0.028  0.028  0.028  0.000  0.000  0.000  0.000  0.000  0.194
    2  0.111  0.028  0.028  0.028  0.000  0.000  0.000  0.000  0.000  0.194
tot    0.222  0.055  0.055  0.055  0.000  0.000  0.000  0.000  0.000  0.389
 
band     6 # energy    9.05341580 # occ.  0.00000000
 
ion      s     py     pz     px    dxy    dyz    dz2    dxz  x2-y2    tot
    1  0.000  0.071  0.083  0.000  0.000  0.000  0.000  0.000  0.000  0.155
    2  0.000  0.071  0.083  0.000  0.000  0.000  0.000  0.000  0.000  0.155
tot    0.000  0.143  0.166  0.001  0.000  0.000  0.000  0.000  0.000  0.310
 
band     7 # energy    9.05341592 # occ.  0.00000000
 
ion      s     py     pz     px    dxy    dyz    dz2    dxz  x2-y2    tot
    1  0.000  0.032  0.020  0.103  0.000  0.000  0.000  0.000  0.000  0.155
    2  0.000  0.032  0.020  0.103  0.000  0.000  0.000  0.000  0.000  0.155
tot    0.000  0.064  0.041  0.206  0.000  0.000  0.000  0.000  0.000  0.310
 
band     8 # energy   11.44118196 # occ.  0.00000000
 
ion      s     py     pz     px    dxy    dyz    dz2    dxz  x2-y2    tot
    1  0.194  0.035  0.035  0.035  0.000  0.000  0.000  0.000  0.000  0.301
    2  0.194  0.035  0.035  0.035  0.000  0.000  0.000  0.000  0.000  0.301
tot    0.388  0.071  0.071  0.071  0.000  0.000  0.000  0.000  0.000  0.601
 

 k-point     6 :    0.19230769 0.00000000 0.00000000     weight = 0.00045517

band     1 # energy   -6.30275584 # occ.  2.00000000
 
ion      s     py     pz     px    dxy    dyz    dz2    dxz  x2-y2    tot
    1  0.212  0.002  0.002  0.002  0.000  0.000  0.000  0.000  0.000  0.218
    2  0.212  0.002  0.002  0.002  0.000  0.000  0.000  0.000  0.000  0.218
tot    0.425  0.003  0.003  0.003  0.000  0.000  0.000  0.000  0.000  0.435
 
band     2 # energy    2.73378675 # occ.  2.00000000
 
ion      s     py     pz     px    dxy    dyz    dz2    dxz  x2-y2    tot
    1  0.079  0.046  0.046  0.046  0.000  0.000  0.000  0.000  0.000  0.218
    2  0.079  0.046  0.046  0.046  0.000  0.000  0.000  0.000  0.000  0.218
tot    0.158  0.093  0.093  0.093  0.000  0.000  0.000  0.000  0.000  0.437
 
band     3 # energy    5.10524584 # occ.  2.00000000
 
ion      s     py     pz     px    dxy    dyz    dz2    dxz  x2-y2    tot
    1  0.000  0.103  0.111  0.000  0.000  0.000  0.000  0.000  0.000  0.215
    2  0.000  0.103  0.111  0.000  0.000  0.000  0.000  0.000  0.000  0.215
tot    0.000  0.207  0.222  0.000  0.000  0.000  0.000  0.000  0.000  0.430
 
band     4 # energy    5.10524594 # occ.  2.00000000
 
ion      s     py     pz     px    dxy    dyz    dz2    dxz  x2-y2    tot
    1  0.000  0.040  0.032  0.143  0.000  0.000  0.000  0.000  0.000  0.215
    2  0.000  0.040  0.032  0.143  0.000  0.000  0.000  0.000  0.000  0.215
tot    0.000  0.079  0.064  0.286  0.000  0.000  0.000  0.000  0.000  0.430
 
band     5 # energy    8.24831914 # occ.  0.00000000
 
ion      s     py     pz     px    dxy    dyz    dz2    dxz  x2-y2    tot
    1  0.131  0.023  0.023  0.023  0.000  0.000  0.000  0.000  0.000  0.199
    2  0.131  0.023  0.023  0.023  0.000  0.000  0.000  0.000  0.000  0.199
tot    0.262  0.045  0.045  0.045  0.000  0.000  0.000  0.000  0.000  0.398
 
band     6 # energy    9.25267482 # occ.  0.00000000
 
ion      s     py     pz     px    dxy    dyz    dz2    dxz  x2-y2    tot
    1  0.000  0.070  0.081  0.000  0.000  0.000  0.000  0.000  0.000  0.152
    2  0.000  0.070  0.081  0.000  0.000  0.000  0.000  0.000  0.000  0.152
tot    0.000  0.140  0.162  0.001  0.000  0.000  0.000  0.000  0.000  0.303
 
band     7 # energy    9.25267492 # occ.  0.00000000
 
ion      s     py     pz     px    dxy    dyz    dz2    dxz  x2-y2    tot
    1  0.000  0.031  0.020  0.101  0.000  0.000  0.000  0.000  0.000  0.152
    2  0.000  0.031  0.020  0.101  0.000  0.000  0.000  0.000  0.000  0.152
tot    0.000  0.062  0.040  0.201  0.000  0.000  0.000  0.000  0.000  0.303
 
band     8 # energy   12.15697132 # occ.  0.00000000
 
ion      s     py     pz     px    dxy    dyz    dz2    dxz  x2-y2    tot
    1  0.162  0.042  0.042  0.042  0.000  0.000  0.000  0.000  0.000  0.288
    2  0.162  0.042  0.042  0.042  0.000  0.000  0.000  0.000  0.000  0.288
tot    0.325  0.084  0.084  0.084  0.000  0.000  0.000  0.000  0.000  0.576
 

 k-point     7 :    0.23076923 0.00000000 0.00000000     weight = 0.00045517

band     1 # energy   -6.08737589 # occ.  2.00000000
 
ion      s     py     pz     px    dxy    dyz    dz2    dxz  x2-y2    tot
    1  0.212  0.002  0.002  0.002  0.000  0.000  0.000  0.000  0.000  0.219
    2  0.212  0.002  0.002  0.002  0.000  0.000  0.000  0.000  0.000  0.219
tot    0.424  0.005  0.005  0.005  0.000  0.000  0.000  0.000  0.000  0.438
 
band     2 # energy    1.98816243 # occ.  2.00000000
 
ion      s     py     pz     px    dxy    dyz    dz2    dxz  x2-y2    tot
    1  0.088  0.043  0.043  0.043  0.000  0.000  0.000  0.000  0.000  0.217
    2  0.088  0.043  0.043  0.043  0.000  0.000  0.000  0.000  0.000  0.217
tot    0.176  0.086  0.086  0.086  0.000  0.000  0.000  0.000  0.000  0.433
 
band     3 # energy    4.95395093 # occ.  2.00000000
 
ion      s     py     pz     px    dxy    dyz    dz2    dxz  x2-y2    tot
    1  0.000  0.103  0.112  0.000  0.000  0.000  0.000  0.000  0.000  0.215
    2  0.000  0.103  0.112  0.000  0.000  0.000  0.000  0.000  0.000  0.215
tot    0.000  0.206  0.225  0.000  0.000  0.000  0.000  0.000  0.000  0.431
 
band     4 # energy    4.95395103 # occ.  2.00000000
 
ion      s     py     pz     px    dxy    dyz    dz2    dxz  x2-y2    tot
    1  0.000  0.041  0.031  0.143  0.000  0.000  0.000  0.000  0.000  0.215
    2  0.000  0.041  0.031  0.143  0.000  0.000  0.000  0.000  0.000  0.215
tot    0.000  0.081  0.062  0.287  0.000  0.000  0.000  0.000  0.000  0.431
 
band     5 # energy    8.10532416 # occ.  0.00000000
 
ion      s     py     pz     px    dxy    dyz    dz2    dxz  x2-y2    tot
    1  0.146  0.018  0.018  0.018  0.000  0.000  0.000  0.000  0.000  0.201
    2  0.146  0.018  0.018  0.018  0.000  0.000  0.000  0.000  0.000  0.201
tot    0.292  0.037  0.037  0.037  0.000  0.000  0.000  0.000  0.000  0.402
 
band     6 # energy    9.39557263 # occ.  0.00000000
 
ion      s     py     pz     px    dxy    dyz    dz2    dxz  x2-y2    tot
    1  0.000  0.068  0.076  0.000  0.000  0.000  0.000  0.000  0.000  0.144
    2  0.000  0.068  0.076  0.000  0.000  0.000  0.000  0.000  0.000  0.144
tot    0.000  0.135  0.152  0.001  0.000  0.000  0.000  0.000  0.000  0.288
 
band     7 # energy    9.39557271 # occ.  0.00000000
 
ion      s     py     pz     px    dxy    dyz    dz2    dxz  x2-y2    tot
    1  0.000  0.028  0.020  0.096  0.000  0.000  0.000  0.000  0.000  0.144
    2  0.000  0.028  0.020  0.096  0.000  0.000  0.000  0.000  0.000  0.144
tot    0.000  0.057  0.040  0.192  0.000  0.000  0.000  0.000  0.000  0.288
 
band     8 # energy   12.86132686 # occ.  0.00000000
 
ion      s     py     pz     px    dxy    dyz    dz2    dxz  x2-y2    tot
    1  0.132  0.047  0.047  0.047  0.000  0.000  0.000  0.000  0.000  0.275
    2  0.132  0.047  0.047  0.047  0.000  0.000  0.000  0.000  0.000  0.275
tot    0.265  0.095  0.095  0.095  0.000  0.000  0.000  0.000  0.000  0.549
 

 k-point     8 :    0.26923077 0.00000000 0.00000000     weight = 0.00045517

band     1 # energy   -5.83836478 # occ.  2.00000000
 
ion      s     py     pz     px    dxy    dyz    dz2    dxz  x2-y2    tot
    1  0.211  0.003  0.003  0.003  0.000  0.000  0.000  0.000  0.000  0.221
    2  0.211  0.003  0.003  0.003  0.000  0.000  0.000  0.000  0.000  0.221
tot    0.423  0.006  0.006  0.006  0.000  0.000  0.000  0.000  0.000  0.442
 
band     2 # energy    1.26715302 # occ.  2.00000000
 
ion      s     py     pz     px    dxy    dyz    dz2    dxz  x2-y2    tot
    1  0.095  0.040  0.040  0.040  0.000  0.000  0.000  0.000  0.000  0.215
    2  0.095  0.040  0.040  0.040  0.000  0.000  0.000  0.000  0.000  0.215
tot    0.190  0.080  0.080  0.080  0.000  0.000  0.000  0.000  0.000  0.429
 
band     3 # energy    4.81632551 # occ.  2.00000000
 
ion      s     py     pz     px    dxy    dyz    dz2    dxz  x2-y2    tot
    1  0.000  0.102  0.113  0.000  0.000  0.000  0.000  0.000  0.000  0.216
    2  0.000  0.102  0.113  0.000  0.000  0.000  0.000  0.000  0.000  0.216
tot    0.000  0.205  0.227  0.001  0.000  0.000  0.000  0.000  0.000  0.432
 
band     4 # energy    4.81632562 # occ.  2.00000000
 
ion      s     py     pz     px    dxy    dyz    dz2    dxz  x2-y2    tot
    1  0.000  0.042  0.031  0.144  0.000  0.000  0.000  0.000  0.000  0.216
    2  0.000  0.042  0.031  0.144  0.000  0.000  0.000  0.000  0.000  0.216
tot    0.000  0.083  0.061  0.288  0.000  0.000  0.000  0.000  0.000  0.432
 
band     5 # energy    7.96885494 # occ.  0.00000000
 
ion      s     py     pz     px    dxy    dyz    dz2    dxz  x2-y2    tot
    1  0.157  0.015  0.015  0.015  0.000  0.000  0.000  0.000  0.000  0.202
    2  0.157  0.015  0.015  0.015  0.000  0.000  0.000  0.000  0.000  0.202
tot    0.315  0.030  0.030  0.030  0.000  0.000  0.000  0.000  0.000  0.405
 
band     6 # energy    9.46491055 # occ.  0.00000000
 
ion      s     py     pz     px    dxy    dyz    dz2    dxz  x2-y2    tot
    1  0.000  0.065  0.068  0.000  0.000  0.000  0.000  0.000  0.000  0.133
    2  0.000  0.065  0.068  0.000  0.000  0.000  0.000  0.000  0.000  0.133
tot    0.000  0.130  0.137  0.000  0.000  0.000  0.000  0.000  0.000  0.267
 
band     7 # energy    9.46491061 # occ.  0.00000000
 
ion      s     py     pz     px    dxy    dyz    dz2    dxz  x2-y2    tot
    1  0.000  0.024  0.021  0.089  0.000  0.000  0.000  0.000  0.000  0.133
    2  0.000  0.024  0.021  0.089  0.000  0.000  0.000  0.000  0.000  0.133
tot    0.000  0.048  0.041  0.178  0.000  0.000  0.000  0.000  0.000  0.267
 
band     8 # energy   13.44964527 # occ.  0.00000000
 
ion      s     py     pz     px    dxy    dyz    dz2    dxz  x2-y2    tot
    1  0.008  0.018  0.002  0.012  0.000  0.000  0.000  0.000  0.000  0.040
    2  0.008  0.000  0.014  0.018  0.000  0.000  0.000  0.000  0.000  0.040
tot    0.016  0.018  0.016  0.030  0.000  0.000  0.000  0.000  0.000  0.080
 

 k-point     9 :    0.30769231 0.00000000 0.00000000     weight = 0.00045517

band     1 # energy   -5.56037385 # occ.  2.00000000
 
ion      s     py     pz     px    dxy    dyz    dz2    dxz  x2-y2    tot
    1  0.211  0.004  0.004  0.004  0.000  0.000  0.000  0.000  0.000  0.223
    2  0.211  0.004  0.004  0.004  0.000  0.000  0.000  0.000  0.000  0.223
tot    0.423  0.008  0.008  0.008  0.000  0.000  0.000  0.000  0.000  0.446
 
band     2 # energy    0.58232289 # occ.  2.00000000
 
ion      s     py     pz     px    dxy    dyz    dz2    dxz  x2-y2    tot
    1  0.100  0.037  0.037  0.037  0.000  0.000  0.000  0.000  0.000  0.212
    2  0.100  0.037  0.037  0.037  0.000  0.000  0.000  0.000  0.000  0.212
tot    0.201  0.074  0.074  0.074  0.000  0.000  0.000  0.000  0.000  0.424
 
band     3 # energy    4.69638582 # occ.  2.00000000
 
ion      s     py     pz     px    dxy    dyz    dz2    dxz  x2-y2    tot
    1  0.000  0.102  0.115  0.000  0.000  0.000  0.000  0.000  0.000  0.217
    2  0.000  0.102  0.115  0.000  0.000  0.000  0.000  0.000  0.000  0.217
tot    0.000  0.204  0.229  0.001  0.000  0.000  0.000  0.000  0.000  0.434
 
band     4 # energy    4.69638593 # occ.  2.00000000
 
ion      s     py     pz     px    dxy    dyz    dz2    dxz  x2-y2    tot
    1  0.000  0.043  0.030  0.144  0.000  0.000  0.000  0.000  0.000  0.217
    2  0.000  0.043  0.030  0.144  0.000  0.000  0.000  0.000  0.000  0.217
tot    0.000  0.085  0.060  0.289  0.000  0.000  0.000  0.000  0.000  0.434
 
band     5 # energy    7.84623989 # occ.  0.00000000
 
ion      s     py     pz     px    dxy    dyz    dz2    dxz  x2-y2    tot
    1  0.166  0.012  0.012  0.012  0.000  0.000  0.000  0.000  0.000  0.203
    2  0.166  0.012  0.012  0.012  0.000  0.000  0.000  0.000  0.000  0.203
tot    0.333  0.025  0.025  0.025  0.000  0.000  0.000  0.000  0.000  0.407
 
band     6 # energy    9.46842747 # occ.  0.00000000
 
ion      s     py     pz     px    dxy    dyz    dz2    dxz  x2-y2    tot
    1  0.000  0.063  0.058  0.000  0.000  0.000  0.000  0.000  0.000  0.122
    2  0.000  0.063  0.058  0.000  0.000  0.000  0.000  0.000  0.000  0.122
tot    0.000  0.127  0.116  0.000  0.000  0.000  0.000  0.000  0.000  0.244
 
band     7 # energy    9.46842752 # occ.  0.00000000
 
ion      s     py     pz     px    dxy    dyz    dz2    dxz  x2-y2    tot
    1  0.000  0.018  0.023  0.081  0.000  0.000  0.000  0.000  0.000  0.122
    2  0.000  0.018  0.023  0.081  0.000  0.000  0.000  0.000  0.000  0.122
tot    0.000  0.035  0.046  0.162  0.000  0.000  0.000  0.000  0.000  0.244
 
band     8 # energy   13.82340080 # occ.  0.00000000
 
ion      s     py     pz     px    dxy    dyz    dz2    dxz  x2-y2    tot
    1  0.000  0.008  0.005  0.016  0.000  0.000  0.000  0.000  0.000  0.030
    2  0.000  0.008  0.005  0.017  0.000  0.000  0.000  0.000  0.000  0.030
tot    0.000  0.017  0.011  0.033  0.000  0.000  0.000  0.000  0.000  0.061
 

 k-point    10 :    0.34615385 0.00000000 0.00000000     weight = 0.00045517

band     1 # energy   -5.26135049 # occ.  2.00000000
 
ion      s     py     pz     px    dxy    dyz    dz2    dxz  x2-y2    tot
    1  0.212  0.005  0.005  0.005  0.000  0.000  0.000  0.000  0.000  0.226
    2  0.212  0.005  0.005  0.005  0.000  0.000  0.000  0.000  0.000  0.226
tot    0.424  0.009  0.009  0.009  0.000  0.000  0.000  0.000  0.000  0.451
 
band     2 # energy   -0.05402615 # occ.  2.00000000
 
ion      s     py     pz     px    dxy    dyz    dz2    dxz  x2-y2    tot
    1  0.104  0.035  0.035  0.035  0.000  0.000  0.000  0.000  0.000  0.209
    2  0.104  0.035  0.035  0.035  0.000  0.000  0.000  0.000  0.000  0.209
tot    0.207  0.070  0.070  0.070  0.000  0.000  0.000  0.000  0.000  0.417
 
band     3 # energy    4.59650452 # occ.  2.00000000
 
ion      s     py     pz     px    dxy    dyz    dz2    dxz  x2-y2    tot
    1  0.000  0.102  0.115  0.000  0.000  0.000  0.000  0.000  0.000  0.218
    2  0.000  0.102  0.115  0.000  0.000  0.000  0.000  0.000  0.000  0.218
tot    0.000  0.204  0.231  0.001  0.000  0.000  0.000  0.000  0.000  0.436
 
band     4 # energy    4.59650463 # occ.  2.00000000
 
ion      s     py     pz     px    dxy    dyz    dz2    dxz  x2-y2    tot
    1  0.000  0.043  0.030  0.145  0.000  0.000  0.000  0.000  0.000  0.218
    2  0.000  0.043  0.030  0.145  0.000  0.000  0.000  0.000  0.000  0.218
tot    0.000  0.087  0.060  0.290  0.000  0.000  0.000  0.000  0.000  0.436
 
band     5 # energy    7.74199144 # occ.  0.00000000
 
ion      s     py     pz     px    dxy    dyz    dz2    dxz  x2-y2    tot
    1  0.174  0.010  0.010  0.010  0.000  0.000  0.000  0.000  0.000  0.204
    2  0.174  0.010  0.010  0.010  0.000  0.000  0.000  0.000  0.000  0.204
tot    0.347  0.020  0.020  0.020  0.000  0.000  0.000  0.000  0.000  0.408
 
band     6 # energy    9.42990586 # occ.  0.00000000
 
ion      s     py     pz     px    dxy    dyz    dz2    dxz  x2-y2    tot
    1  0.000  0.064  0.046  0.002  0.000  0.000  0.000  0.000  0.000  0.112
    2  0.000  0.064  0.046  0.002  0.000  0.000  0.000  0.000  0.000  0.112
tot    0.000  0.129  0.091  0.003  0.000  0.000  0.000  0.000  0.000  0.223
 
band     7 # energy    9.42990589 # occ.  0.00000000
 
ion      s     py     pz     px    dxy    dyz    dz2    dxz  x2-y2    tot
    1  0.000  0.010  0.029  0.073  0.000  0.000  0.000  0.000  0.000  0.112
    2  0.000  0.010  0.029  0.073  0.000  0.000  0.000  0.000  0.000  0.112
tot    0.000  0.020  0.058  0.145  0.000  0.000  0.000  0.000  0.000  0.223
 
band     8 # energy   14.18559465 # occ.  0.00000000
 
ion      s     py     pz     px    dxy    dyz    dz2    dxz  x2-y2    tot
    1  0.010  0.036  0.036  0.036  0.000  0.000  0.000  0.000  0.000  0.117
    2  0.010  0.036  0.036  0.036  0.000  0.000  0.000  0.000  0.000  0.117
tot    0.019  0.071  0.071  0.071  0.000  0.000  0.000  0.000  0.000  0.233
 

 k-point    11 :    0.38461538 0.00000000 0.00000000     weight = 0.00045517

band     1 # energy   -4.95548917 # occ.  2.00000000
 
ion      s     py     pz     px    dxy    dyz    dz2    dxz  x2-y2    tot
    1  0.214  0.005  0.005  0.005  0.000  0.000  0.000  0.000  0.000  0.229
    2  0.214  0.005  0.005  0.005  0.000  0.000  0.000  0.000  0.000  0.229