<?xml version="1.0" encoding="ISO-8859-1"?>
<modeling>
 <generator>
  <i name="program" type="string">vasp </i>
  <i name="version" type="string">6.1.2  </i>
  <i name="subversion" type="string">22Jul20 (build Mar 11 2021 17:42:27) complex                          parallel </i>
  <i name="platform" type="string">LinuxIFC </i>
  <i name="date" type="string">2021 03 11 </i>
  <i name="time" type="string">18:51:34 </i>
 </generator>
 <incar>
  <i type="string" name="SYSTEM">  Si</i>
  <i type="string" name="PREC">  Accurate</i>
  <i type="string" name="ALGO">  Normal</i>
  <i type="logical" name="ADDGRID"> T  </i>
  <i type="int" name="NELM">   200</i>
  <i type="int" name="NELMIN">     6</i>
  <i type="int" name="IBRION">    -1</i>
  <i name="EDIFF">      0.00000010</i>
  <i type="int" name="NSW">     0</i>
  <i name="ENCUT">    800.00000000</i>
  <i name="ENAUG">    900.00000000</i>
  <i type="logical" name="LREAL"> F  </i>
  <i type="int" name="ISMEAR">    -5</i>
  <i name="KSPACING">      0.08000000</i>
  <i type="logical" name="KGAMMA"> T  </i>
  <i type="int" name="LMAXMIX">     4</i>
  <i type="logical" name="LWAVE"> F  </i>
  <i type="logical" name="LCHARG"> T  </i>
  <i type="logical" name="LASPH"> T  </i>
  <i type="int" name="KPAR">     2</i>
  <i type="int" name="NPAR">     2</i>
  <i type="string" name="ALGO">  Normal</i>
  <i type="int" name="NELM">   200</i>
  <i type="string" name="GGA">  PE</i>
  <i name="EDIFF">      0.00000010</i>
  <i type="string" name="METAGGA"> R2SCAN</i>
  <i type="logical" name="LASPH"> T  </i>
  <i type="logical" name="LMIXTAU"> T  </i>
 </incar>
 <structure name="primitive_cell" >
  <crystal>
   <varray name="basis" >
    <v>       0.00000000       2.72007468       2.72007468 </v>
    <v>       2.72007468       0.00000000       2.72007468 </v>
    <v>       2.72007468       2.72007468       0.00000000 </v>
   </varray>
   <i name="volume">     40.25061110 </i>
   <varray name="rec_basis" >
    <v>      -0.18381848       0.18381848       0.18381848 </v>
    <v>       0.18381848      -0.18381848       0.18381848 </v>
    <v>       0.18381848       0.18381848      -0.18381848 </v>
   </varray>
  </crystal>
  <varray name="positions" >
   <v>       0.87500000       0.87500000       0.87500000 </v>
   <v>       0.12500000       0.12500000       0.12500000 </v>
  </varray>
 </structure>
 <varray name="primitive_index" >
  <v type="int" >        1 </v>
  <v type="int" >        2 </v>
 </varray>
 <kpoints>
  <generation param="Gamma">
   <v type="int" name="divisions">      26       26       26 </v>
   <v name="usershift">      0.00000000       0.00000000       0.00000000 </v>
   <v name="genvec1">      0.03846154       0.00000000       0.00000000 </v>
   <v name="genvec2">      0.00000000       0.03846154       0.00000000 </v>
   <v name="genvec3">      0.00000000       0.00000000       0.03846154 </v>
   <v name="shift">      0.00000000       0.00000000       0.00000000 </v>
  </generation>
  <varray name="kpointlist" >
   <v>       0.00000000       0.00000000       0.00000000 </v>
   <v>       0.03846154       0.00000000       0.00000000 </v>
   <v>       0.07692308       0.00000000       0.00000000 </v>
   <v>       0.11538462       0.00000000       0.00000000 </v>
   <v>       0.15384615       0.00000000       0.00000000 </v>
   <v>       0.19230769       0.00000000       0.00000000 </v>
   <v>       0.23076923       0.00000000       0.00000000 </v>
   <v>       0.26923077       0.00000000       0.00000000 </v>
   <v>       0.30769231       0.00000000       0.00000000 </v>
   <v>       0.34615385       0.00000000       0.00000000 </v>
   <v>       0.38461538       0.00000000       0.00000000 </v>
   <v>       0.42307692       0.00000000       0.00000000 </v>
   <v>       0.46153846       0.00000000       0.00000000 </v>
   <v>       0.50000000       0.00000000       0.00000000 </v>
   <v>       0.03846154       0.03846154       0.00000000 </v>
   <v>       0.07692308       0.03846154       0.00000000 </v>
   <v>       0.11538462       0.03846154       0.00000000 </v>
   <v>       0.15384615       0.03846154       0.00000000 </v>
   <v>       0.19230769       0.03846154       0.00000000 </v>
   <v>       0.23076923       0.03846154       0.00000000 </v>
   <v>       0.26923077       0.03846154       0.00000000 </v>
   <v>       0.30769231       0.03846154       0.00000000 </v>
   <v>       0.34615385       0.03846154       0.00000000 </v>
   <v>       0.38461538       0.03846154       0.00000000 </v>
   <v>       0.42307692       0.03846154       0.00000000 </v>
   <v>       0.46153846       0.03846154       0.00000000 </v>
   <v>       0.50000000       0.03846154       0.00000000 </v>
   <v>      -0.46153846       0.03846154       0.00000000 </v>
   <v>      -0.42307692       0.03846154       0.00000000 </v>
   <v>      -0.38461538       0.03846154       0.00000000 </v>
   <v>      -0.34615385       0.03846154       0.00000000 </v>
   <v>      -0.30769231       0.03846154       0.00000000 </v>
   <v>      -0.26923077       0.03846154       0.00000000 </v>
   <v>      -0.23076923       0.03846154       0.00000000 </v>
   <v>      -0.19230769       0.03846154       0.00000000 </v>
   <v>      -0.15384615       0.03846154       0.00000000 </v>
   <v>      -0.11538462       0.03846154       0.00000000 </v>
   <v>      -0.07692308       0.03846154       0.00000000 </v>
   <v>      -0.03846154       0.03846154       0.00000000 </v>
   <v>       0.07692308       0.07692308       0.00000000 </v>
   <v>       0.11538462       0.07692308       0.00000000 </v>
   <v>       0.15384615       0.07692308       0.00000000 </v>
   <v>       0.19230769       0.07692308       0.00000000 </v>
   <v>       0.23076923       0.07692308       0.00000000 </v>
   <v>       0.26923077       0.07692308       0.00000000 </v>
   <v>       0.30769231       0.07692308       0.00000000 </v>
   <v>       0.34615385       0.07692308       0.00000000 </v>
   <v>       0.38461538       0.07692308       0.00000000 </v>
   <v>       0.42307692       0.07692308       0.00000000 </v>
   <v>       0.46153846       0.07692308       0.00000000 </v>
   <v>       0.50000000       0.07692308       0.00000000 </v>
   <v>      -0.46153846       0.07692308       0.00000000 </v>
   <v>      -0.42307692       0.07692308       0.00000000 </v>
   <v>      -0.38461538       0.07692308       0.00000000 </v>
   <v>      -0.34615385       0.07692308       0.00000000 </v>
   <v>      -0.30769231       0.07692308       0.00000000 </v>
   <v>      -0.26923077       0.07692308       0.00000000 </v>
   <v>      -0.23076923       0.07692308       0.00000000 </v>
   <v>      -0.19230769       0.07692308       0.00000000 </v>
   <v>      -0.15384615       0.07692308       0.00000000 </v>
   <v>      -0.11538462       0.07692308       0.00000000 </v>
   <v>      -0.07692308       0.07692308       0.00000000 </v>
   <v>       0.11538462       0.11538462       0.00000000 </v>
   <v>       0.15384615       0.11538462       0.00000000 </v>
   <v>       0.19230769       0.11538462       0.00000000 </v>
   <v>       0.23076923       0.11538462       0.00000000 </v>
   <v>       0.26923077       0.11538462       0.00000000 </v>
   <v>       0.30769231       0.11538462       0.00000000 </v>
   <v>       0.34615385       0.11538462       0.00000000 </v>
   <v>       0.38461538       0.11538462       0.00000000 </v>
   <v>       0.42307692       0.11538462       0.00000000 </v>
   <v>       0.46153846       0.11538462       0.00000000 </v>
   <v>       0.50000000       0.11538462       0.00000000 </v>
   <v>      -0.46153846       0.11538462       0.00000000 </v>
   <v>      -0.42307692       0.11538462       0.00000000 </v>
   <v>      -0.38461538       0.11538462       0.00000000 </v>
   <v>      -0.34615385       0.11538462       0.00000000 </v>
   <v>      -0.30769231       0.11538462       0.00000000 </v>
   <v>      -0.26923077       0.11538462       0.00000000 </v>
   <v>      -0.23076923       0.11538462       0.00000000 </v>
   <v>      -0.19230769       0.11538462       0.00000000 </v>
   <v>      -0.15384615       0.11538462       0.00000000 </v>
   <v>      -0.11538462       0.11538462       0.00000000 </v>
   <v>       0.15384615       0.15384615       0.00000000 </v>
   <v>       0.19230769       0.15384615       0.00000000 </v>
   <v>       0.23076923       0.15384615       0.00000000 </v>
   <v>       0.26923077       0.15384615       0.00000000 </v>
   <v>       0.30769231       0.15384615       0.00000000 </v>
   <v>       0.34615385       0.15384615       0.00000000 </v>
   <v>       0.38461538       0.15384615       0.00000000 </v>
   <v>       0.42307692       0.15384615       0.00000000 </v>
   <v>       0.46153846       0.15384615       0.00000000 </v>
   <v>       0.50000000       0.15384615       0.00000000 </v>
   <v>      -0.46153846       0.15384615       0.00000000 </v>
   <v>      -0.42307692       0.15384615       0.00000000 </v>
   <v>      -0.38461538       0.15384615       0.00000000 </v>
   <v>      -0.34615385       0.15384615       0.00000000 </v>
   <v>      -0.30769231       0.15384615       0.00000000 </v>
   <v>      -0.26923077       0.15384615       0.00000000 </v>
   <v>      -0.23076923       0.15384615       0.00000000 </v>
   <v>      -0.19230769       0.15384615       0.00000000 </v>
   <v>      -0.15384615       0.15384615       0.00000000 </v>
   <v>       0.19230769       0.19230769       0.00000000 </v>
   <v>       0.23076923       0.19230769       0.00000000 </v>
   <v>       0.26923077       0.19230769       0.00000000 </v>
   <v>       0.30769231       0.19230769       0.00000000 </v>
   <v>       0.34615385       0.19230769       0.00000000 </v>
   <v>       0.38461538       0.19230769       0.00000000 </v>
   <v>       0.42307692       0.19230769       0.00000000 </v>
   <v>       0.46153846       0.19230769       0.00000000 </v>
   <v>       0.50000000       0.19230769       0.00000000 </v>
   <v>      -0.46153846       0.19230769       0.00000000 </v>
   <v>      -0.42307692       0.19230769       0.00000000 </v>
   <v>      -0.38461538       0.19230769       0.00000000 </v>
   <v>      -0.34615385       0.19230769       0.00000000 </v>
   <v>      -0.30769231       0.19230769       0.00000000 </v>
   <v>      -0.26923077       0.19230769       0.00000000 </v>
   <v>      -0.23076923       0.19230769       0.00000000 </v>
   <v>      -0.19230769       0.19230769       0.00000000 </v>
   <v>       0.23076923       0.23076923       0.00000000 </v>
   <v>       0.26923077       0.23076923       0.00000000 </v>
   <v>       0.30769231       0.23076923       0.00000000 </v>
   <v>       0.34615385       0.23076923       0.00000000 </v>
   <v>       0.38461538       0.23076923       0.00000000 </v>
   <v>       0.42307692       0.23076923       0.00000000 </v>
   <v>       0.46153846       0.23076923       0.00000000 </v>
   <v>       0.50000000       0.23076923       0.00000000 </v>
   <v>      -0.46153846       0.23076923       0.00000000 </v>
   <v>      -0.42307692       0.23076923       0.00000000 </v>
   <v>      -0.38461538       0.23076923       0.00000000 </v>
   <v>      -0.34615385       0.23076923       0.00000000 </v>
   <v>      -0.30769231       0.23076923       0.00000000 </v>
   <v>      -0.26923077       0.23076923       0.00000000 </v>
   <v>      -0.23076923       0.23076923       0.00000000 </v>
   <v>       0.26923077       0.26923077       0.00000000 </v>
   <v>       0.30769231       0.26923077       0.00000000 </v>
   <v>       0.34615385       0.26923077       0.00000000 </v>
   <v>       0.38461538       0.26923077       0.00000000 </v>
   <v>       0.42307692       0.26923077       0.00000000 </v>
   <v>       0.46153846       0.26923077       0.00000000 </v>
   <v>       0.50000000       0.26923077       0.00000000 </v>
   <v>      -0.46153846       0.26923077       0.00000000 </v>
   <v>      -0.42307692       0.26923077       0.00000000 </v>
   <v>      -0.38461538       0.26923077       0.00000000 </v>
   <v>      -0.34615385       0.26923077       0.00000000 </v>
   <v>      -0.30769231       0.26923077       0.00000000 </v>
   <v>      -0.26923077       0.26923077       0.00000000 </v>
   <v>       0.30769231       0.30769231       0.00000000 </v>
   <v>       0.34615385       0.30769231       0.00000000 </v>
   <v>       0.38461538       0.30769231       0.00000000 </v>
   <v>       0.42307692       0.30769231       0.00000000 </v>
   <v>       0.46153846       0.30769231       0.00000000 </v>
   <v>       0.50000000       0.30769231       0.00000000 </v>
   <v>      -0.46153846       0.30769231       0.00000000 </v>
   <v>      -0.42307692       0.30769231       0.00000000 </v>
   <v>      -0.38461538       0.30769231       0.00000000 </v>
   <v>      -0.34615385       0.30769231       0.00000000 </v>
   <v>      -0.30769231       0.30769231       0.00000000 </v>
   <v>       0.34615385       0.34615385       0.00000000 </v>
   <v>       0.38461538       0.34615385       0.00000000 </v>
   <v>       0.42307692       0.34615385       0.00000000 </v>
   <v>       0.46153846       0.34615385       0.00000000 </v>
   <v>       0.50000000       0.34615385       0.00000000 </v>
   <v>      -0.46153846       0.34615385       0.00000000 </v>
   <v>      -0.42307692       0.34615385       0.00000000 </v>
   <v>      -0.38461538       0.34615385       0.00000000 </v>
   <v>      -0.34615385       0.34615385       0.00000000 </v>
   <v>       0.38461538       0.38461538       0.00000000 </v>
   <v>       0.42307692       0.38461538       0.00000000 </v>
   <v>       0.46153846       0.38461538       0.00000000 </v>
   <v>       0.50000000       0.38461538       0.00000000 </v>
   <v>      -0.46153846       0.38461538       0.00000000 </v>
   <v>      -0.42307692       0.38461538       0.00000000 </v>
   <v>      -0.38461538       0.38461538       0.00000000 </v>
   <v>       0.42307692       0.42307692       0.00000000 </v>
   <v>       0.46153846       0.42307692       0.00000000 </v>
   <v>       0.50000000       0.42307692       0.00000000 </v>
   <v>      -0.46153846       0.42307692       0.00000000 </v>
   <v>      -0.42307692       0.42307692       0.00000000 </v>
   <v>       0.46153846       0.46153846       0.00000000 </v>
   <v>       0.50000000       0.46153846       0.00000000 </v>
   <v>      -0.46153846       0.46153846       0.00000000 </v>
   <v>       0.50000000       0.50000000       0.00000000 </v>
   <v>       0.11538462       0.07692308       0.03846154 </v>
   <v>       0.15384615       0.07692308       0.03846154 </v>
   <v>       0.19230769       0.07692308       0.03846154 </v>
   <v>       0.23076923       0.07692308       0.03846154 </v>
   <v>       0.26923077       0.07692308       0.03846154 </v>
   <v>       0.30769231       0.07692308       0.03846154 </v>
   <v>       0.34615385       0.07692308       0.03846154 </v>
   <v>       0.38461538       0.07692308       0.03846154 </v>
   <v>       0.42307692       0.07692308       0.03846154 </v>
   <v>       0.46153846       0.07692308       0.03846154 </v>
   <v>       0.50000000       0.07692308       0.03846154 </v>
   <v>      -0.46153846       0.07692308       0.03846154 </v>
   <v>       0.15384615       0.11538462       0.03846154 </v>
   <v>       0.19230769       0.11538462       0.03846154 </v>
   <v>       0.23076923       0.11538462       0.03846154 </v>
   <v>       0.26923077       0.11538462       0.03846154 </v>
   <v>       0.30769231       0.11538462       0.03846154 </v>
   <v>       0.34615385       0.11538462       0.03846154 </v>
   <v>       0.38461538       0.11538462       0.03846154 </v>
   <v>       0.42307692       0.11538462       0.03846154 </v>
   <v>       0.46153846       0.11538462       0.03846154 </v>
   <v>       0.50000000       0.11538462       0.03846154 </v>
   <v>      -0.46153846       0.11538462       0.03846154 </v>
   <v>      -0.42307692       0.11538462       0.03846154 </v>
   <v>      -0.38461538       0.11538462       0.03846154 </v>
   <v>      -0.34615385       0.11538462       0.03846154 </v>
   <v>      -0.30769231       0.11538462       0.03846154 </v>
   <v>      -0.26923077       0.11538462       0.03846154 </v>
   <v>      -0.23076923       0.11538462       0.03846154 </v>
   <v>      -0.19230769       0.11538462       0.03846154 </v>
   <v>      -0.15384615       0.11538462       0.03846154 </v>
   <v>      -0.11538462       0.11538462       0.03846154 </v>
   <v>      -0.07692308       0.11538462       0.03846154 </v>
   <v>       0.19230769       0.15384615       0.03846154 </v>
   <v>       0.23076923       0.15384615       0.03846154 </v>
   <v>       0.26923077       0.15384615       0.03846154 </v>
   <v>       0.30769231       0.15384615       0.03846154 </v>
   <v>       0.34615385       0.15384615       0.03846154 </v>
   <v>       0.38461538       0.15384615       0.03846154 </v>
   <v>       0.42307692       0.15384615       0.03846154 </v>
   <v>       0.46153846       0.15384615       0.03846154 </v>
   <v>       0.50000000       0.15384615       0.03846154 </v>
   <v>      -0.46153846       0.15384615       0.03846154 </v>
   <v>      -0.42307692       0.15384615       0.03846154 </v>
   <v>      -0.38461538       0.15384615       0.03846154 </v>
   <v>      -0.34615385       0.15384615       0.03846154 </v>
   <v>      -0.30769231       0.15384615       0.03846154 </v>
   <v>      -0.26923077       0.15384615       0.03846154 </v>
   <v>      -0.23076923       0.15384615       0.03846154 </v>
   <v>      -0.19230769       0.15384615       0.03846154 </v>
   <v>      -0.15384615       0.15384615       0.03846154 </v>
   <v>      -0.11538462       0.15384615       0.03846154 </v>
   <v>       0.23076923       0.19230769       0.03846154 </v>
   <v>       0.26923077       0.19230769       0.03846154 </v>
   <v>       0.30769231       0.19230769       0.03846154 </v>
   <v>       0.34615385       0.19230769       0.03846154 </v>
   <v>       0.38461538       0.19230769       0.03846154 </v>
   <v>       0.42307692       0.19230769       0.03846154 </v>
   <v>       0.46153846       0.19230769       0.03846154 </v>
   <v>       0.50000000       0.19230769       0.03846154 </v>
   <v>      -0.46153846       0.19230769       0.03846154 </v>
   <v>      -0.42307692       0.19230769       0.03846154 </v>
   <v>      -0.38461538       0.19230769       0.03846154 </v>
   <v>      -0.34615385       0.19230769       0.03846154 </v>
   <v>      -0.30769231       0.19230769       0.03846154 </v>
   <v>      -0.26923077       0.19230769       0.03846154 </v>
   <v>      -0.23076923       0.19230769       0.03846154 </v>
   <v>      -0.19230769       0.19230769       0.03846154 </v>
   <v>      -0.15384615       0.19230769       0.03846154 </v>
   <v>       0.26923077       0.23076923       0.03846154 </v>
   <v>       0.30769231       0.23076923       0.03846154 </v>
   <v>       0.34615385       0.23076923       0.03846154 </v>
   <v>       0.38461538       0.23076923       0.03846154 </v>
   <v>       0.42307692       0.23076923       0.03846154 </v>
   <v>       0.46153846       0.23076923       0.03846154 </v>
   <v>       0.50000000       0.23076923       0.03846154 </v>
   <v>      -0.46153846       0.23076923       0.03846154 </v>
   <v>      -0.42307692       0.23076923       0.03846154 </v>
   <v>      -0.38461538       0.23076923       0.03846154 </v>
   <v>      -0.34615385       0.23076923       0.03846154 </v>
   <v>      -0.30769231       0.23076923       0.03846154 </v>
   <v>      -0.26923077       0.23076923       0.03846154 </v>
   <v>      -0.23076923       0.23076923       0.03846154 </v>
   <v>      -0.19230769       0.23076923       0.03846154 </v>
   <v>       0.30769231       0.26923077       0.03846154 </v>
   <v>       0.34615385       0.26923077       0.03846154 </v>
   <v>       0.38461538       0.26923077       0.03846154 </v>
   <v>       0.42307692       0.26923077       0.03846154 </v>
   <v>       0.46153846       0.26923077       0.03846154 </v>
   <v>       0.50000000       0.26923077       0.03846154 </v>
   <v>      -0.46153846       0.26923077       0.03846154 </v>
   <v>      -0.42307692       0.26923077       0.03846154 </v>
   <v>      -0.38461538       0.26923077       0.03846154 </v>
   <v>      -0.34615385       0.26923077       0.03846154 </v>
   <v>      -0.30769231       0.26923077       0.03846154 </v>
   <v>      -0.26923077       0.26923077       0.03846154 </v>
   <v>      -0.23076923       0.26923077       0.03846154 </v>
   <v>       0.34615385       0.30769231       0.03846154 </v>
   <v>       0.38461538       0.30769231       0.03846154 </v>
   <v>       0.42307692       0.30769231       0.03846154 </v>
   <v>       0.46153846       0.30769231       0.03846154 </v>
   <v>       0.50000000       0.30769231       0.03846154 </v>
   <v>      -0.46153846       0.30769231       0.03846154 </v>
   <v>      -0.42307692       0.30769231       0.03846154 </v>
   <v>      -0.38461538       0.30769231       0.03846154 </v>
   <v>      -0.34615385       0.30769231       0.03846154 </v>
   <v>      -0.30769231       0.30769231       0.03846154 </v>
   <v>      -0.26923077       0.30769231       0.03846154 </v>
   <v>       0.38461538       0.34615385       0.03846154 </v>
   <v>       0.42307692       0.34615385       0.03846154 </v>
   <v>       0.46153846       0.34615385       0.03846154 </v>
   <v>       0.50000000       0.34615385       0.03846154 </v>
   <v>      -0.46153846       0.34615385       0.03846154 </v>
   <v>      -0.42307692       0.34615385       0.03846154 </v>
   <v>      -0.38461538       0.34615385       0.03846154 </v>
   <v>      -0.34615385       0.34615385       0.03846154 </v>
   <v>      -0.30769231       0.34615385       0.03846154 </v>
   <v>       0.42307692       0.38461538       0.03846154 </v>
   <v>       0.46153846       0.38461538       0.03846154 </v>
   <v>       0.50000000       0.38461538       0.03846154 </v>
   <v>      -0.46153846       0.38461538       0.03846154 </v>
   <v>      -0.42307692       0.38461538       0.03846154 </v>
   <v>      -0.38461538       0.38461538       0.03846154 </v>
   <v>      -0.34615385       0.38461538       0.03846154 </v>
   <v>       0.46153846       0.42307692       0.03846154 </v>
   <v>       0.50000000       0.42307692       0.03846154 </v>
   <v>      -0.46153846       0.42307692       0.03846154 </v>
   <v>      -0.42307692       0.42307692       0.03846154 </v>
   <v>      -0.38461538       0.42307692       0.03846154 </v>
   <v>       0.50000000       0.46153846       0.03846154 </v>
   <v>      -0.46153846       0.46153846       0.03846154 </v>
   <v>      -0.42307692       0.46153846       0.03846154 </v>
   <v>      -0.46153846       0.50000000       0.03846154 </v>
   <v>       0.23076923       0.15384615       0.07692308 </v>
   <v>       0.26923077       0.15384615       0.07692308 </v>
   <v>       0.30769231       0.15384615       0.07692308 </v>
   <v>       0.34615385       0.15384615       0.07692308 </v>
   <v>       0.38461538       0.15384615       0.07692308 </v>
   <v>       0.42307692       0.15384615       0.07692308 </v>
   <v>       0.46153846       0.15384615       0.07692308 </v>
   <v>       0.50000000       0.15384615       0.07692308 </v>
   <v>      -0.46153846       0.15384615       0.07692308 </v>
   <v>      -0.42307692       0.15384615       0.07692308 </v>
   <v>       0.26923077       0.19230769       0.07692308 </v>
   <v>       0.30769231       0.19230769       0.07692308 </v>
   <v>       0.34615385       0.19230769       0.07692308 </v>
   <v>       0.38461538       0.19230769       0.07692308 </v>
   <v>       0.42307692       0.19230769       0.07692308 </v>
   <v>       0.46153846       0.19230769       0.07692308 </v>
   <v>       0.50000000       0.19230769       0.07692308 </v>
   <v>      -0.46153846       0.19230769       0.07692308 </v>
   <v>      -0.42307692       0.19230769       0.07692308 </v>
   <v>      -0.38461538       0.19230769       0.07692308 </v>
   <v>      -0.34615385       0.19230769       0.07692308 </v>
   <v>      -0.30769231       0.19230769       0.07692308 </v>
   <v>      -0.26923077       0.19230769       0.07692308 </v>
   <v>      -0.23076923       0.19230769       0.07692308 </v>
   <v>      -0.19230769       0.19230769       0.07692308 </v>
   <v>      -0.15384615       0.19230769       0.07692308 </v>
   <v>      -0.11538462       0.19230769       0.07692308 </v>
   <v>       0.30769231       0.23076923       0.07692308 </v>
   <v>       0.34615385       0.23076923       0.07692308 </v>
   <v>       0.38461538       0.23076923       0.07692308 </v>
   <v>       0.42307692       0.23076923       0.07692308 </v>
   <v>       0.46153846       0.23076923       0.07692308 </v>
   <v>       0.50000000       0.23076923       0.07692308 </v>
   <v>      -0.46153846       0.23076923       0.07692308 </v>
   <v>      -0.42307692       0.23076923       0.07692308 </v>
   <v>      -0.38461538       0.23076923       0.07692308 </v>
   <v>      -0.34615385       0.23076923       0.07692308 </v>
   <v>      -0.30769231       0.23076923       0.07692308 </v>
   <v>      -0.26923077       0.23076923       0.07692308 </v>
   <v>      -0.23076923       0.23076923       0.07692308 </v>
   <v>      -0.19230769       0.23076923       0.07692308 </v>
   <v>      -0.15384615       0.23076923       0.07692308 </v>
   <v>       0.34615385       0.26923077       0.07692308 </v>
   <v>       0.38461538       0.26923077       0.07692308 </v>
   <v>       0.42307692       0.26923077       0.07692308 </v>
   <v>       0.46153846       0.26923077       0.07692308 </v>
   <v>       0.50000000       0.26923077       0.07692308 </v>
   <v>      -0.46153846       0.26923077       0.07692308 </v>
   <v>      -0.42307692       0.26923077       0.07692308 </v>
   <v>      -0.38461538       0.26923077       0.07692308 </v>
   <v>      -0.34615385       0.26923077       0.07692308 </v>
   <v>      -0.30769231       0.26923077       0.07692308 </v>
   <v>      -0.26923077       0.26923077       0.07692308 </v>
   <v>      -0.23076923       0.26923077       0.07692308 </v>
   <v>      -0.19230769       0.26923077       0.07692308 </v>
   <v>       0.38461538       0.30769231       0.07692308 </v>
   <v>       0.42307692       0.30769231       0.07692308 </v>
   <v>       0.46153846       0.30769231       0.07692308 </v>
   <v>       0.50000000       0.30769231       0.07692308 </v>
   <v>      -0.46153846       0.30769231       0.07692308 </v>
   <v>      -0.42307692       0.30769231       0.07692308 </v>
   <v>      -0.38461538       0.30769231       0.07692308 </v>
   <v>      -0.34615385       0.30769231       0.07692308 </v>
   <v>      -0.30769231       0.30769231       0.07692308 </v>
   <v>      -0.26923077       0.30769231       0.07692308 </v>
   <v>      -0.23076923       0.30769231       0.07692308 </v>
   <v>       0.42307692       0.34615385       0.07692308 </v>
   <v>       0.46153846       0.34615385       0.07692308 </v>
   <v>       0.50000000       0.34615385       0.07692308 </v>
   <v>      -0.46153846       0.34615385       0.07692308 </v>
   <v>      -0.42307692       0.34615385       0.07692308 </v>
   <v>      -0.38461538       0.34615385       0.07692308 </v>
   <v>      -0.34615385       0.34615385       0.07692308 </v>
   <v>      -0.30769231       0.34615385       0.07692308 </v>
   <v>      -0.26923077       0.34615385       0.07692308 </v>
   <v>       0.46153846       0.38461538       0.07692308 </v>
   <v>       0.50000000       0.38461538       0.07692308 </v>
   <v>      -0.46153846       0.38461538       0.07692308 </v>
   <v>      -0.42307692       0.38461538       0.07692308 </v>
   <v>      -0.38461538       0.38461538       0.07692308 </v>
   <v>      -0.34615385       0.38461538       0.07692308 </v>
   <v>      -0.30769231       0.38461538       0.07692308 </v>
   <v>       0.50000000       0.42307692       0.07692308 </v>
   <v>      -0.46153846       0.42307692       0.07692308 </v>
   <v>      -0.42307692       0.42307692       0.07692308 </v>
   <v>      -0.38461538       0.42307692       0.07692308 </v>
   <v>      -0.34615385       0.42307692       0.07692308 </v>
   <v>      -0.46153846       0.46153846       0.07692308 </v>
   <v>      -0.42307692       0.46153846       0.07692308 </v>
   <v>      -0.38461538       0.46153846       0.07692308 </v>
   <v>      -0.42307692       0.50000000       0.07692308 </v>
   <v>       0.34615385       0.23076923       0.11538462 </v>
   <v>       0.38461538       0.23076923       0.11538462 </v>
   <v>       0.42307692       0.23076923       0.11538462 </v>
   <v>       0.46153846       0.23076923       0.11538462 </v>
   <v>       0.50000000       0.23076923       0.11538462 </v>
   <v>      -0.46153846       0.23076923       0.11538462 </v>
   <v>      -0.42307692       0.23076923       0.11538462 </v>
   <v>      -0.38461538       0.23076923       0.11538462 </v>
   <v>       0.38461538       0.26923077       0.11538462 </v>
   <v>       0.42307692       0.26923077       0.11538462 </v>
   <v>       0.46153846       0.26923077       0.11538462 </v>
   <v>       0.50000000       0.26923077       0.11538462 </v>
   <v>      -0.46153846       0.26923077       0.11538462 </v>
   <v>      -0.42307692       0.26923077       0.11538462 </v>
   <v>      -0.38461538       0.26923077       0.11538462 </v>
   <v>      -0.34615385       0.26923077       0.11538462 </v>
   <v>      -0.30769231       0.26923077       0.11538462 </v>
   <v>      -0.26923077       0.26923077       0.11538462 </v>
   <v>      -0.23076923       0.26923077       0.11538462 </v>
   <v>      -0.19230769       0.26923077       0.11538462 </v>
   <v>      -0.15384615       0.26923077       0.11538462 </v>
   <v>       0.42307692       0.30769231       0.11538462 </v>
   <v>       0.46153846       0.30769231       0.11538462 </v>
   <v>       0.50000000       0.30769231       0.11538462 </v>
   <v>      -0.46153846       0.30769231       0.11538462 </v>
   <v>      -0.42307692       0.30769231       0.11538462 </v>
   <v>      -0.38461538       0.30769231       0.11538462 </v>
   <v>      -0.34615385       0.30769231       0.11538462 </v>
   <v>      -0.30769231       0.30769231       0.11538462 </v>
   <v>      -0.26923077       0.30769231       0.11538462 </v>
   <v>      -0.23076923       0.30769231       0.11538462 </v>
   <v>      -0.19230769       0.30769231       0.11538462 </v>
   <v>       0.46153846       0.34615385       0.11538462 </v>
   <v>       0.50000000       0.34615385       0.11538462 </v>
   <v>      -0.46153846       0.34615385       0.11538462 </v>
   <v>      -0.42307692       0.34615385       0.11538462 </v>
   <v>      -0.38461538       0.34615385       0.11538462 </v>
   <v>      -0.34615385       0.34615385       0.11538462 </v>
   <v>      -0.30769231       0.34615385       0.11538462 </v>
   <v>      -0.26923077       0.34615385       0.11538462 </v>
   <v>      -0.23076923       0.34615385       0.11538462 </v>
   <v>       0.50000000       0.38461538       0.11538462 </v>
   <v>      -0.46153846       0.38461538       0.11538462 </v>
   <v>      -0.42307692       0.38461538       0.11538462 </v>
   <v>      -0.38461538       0.38461538       0.11538462 </v>
   <v>      -0.34615385       0.38461538       0.11538462 </v>
   <v>      -0.30769231       0.38461538       0.11538462 </v>
   <v>      -0.26923077       0.38461538       0.11538462 </v>
   <v>      -0.46153846       0.42307692       0.11538462 </v>
   <v>      -0.42307692       0.42307692       0.11538462 </v>
   <v>      -0.38461538       0.42307692       0.11538462 </v>
   <v>      -0.34615385       0.42307692       0.11538462 </v>
   <v>      -0.30769231       0.42307692       0.11538462 </v>
   <v>      -0.42307692       0.46153846       0.11538462 </v>
   <v>      -0.38461538       0.46153846       0.11538462 </v>
   <v>      -0.34615385       0.46153846       0.11538462 </v>
   <v>      -0.38461538       0.50000000       0.11538462 </v>
   <v>       0.46153846       0.30769231       0.15384615 </v>
   <v>       0.50000000       0.30769231       0.15384615 </v>
   <v>      -0.46153846       0.30769231       0.15384615 </v>
   <v>      -0.42307692       0.30769231       0.15384615 </v>
   <v>      -0.38461538       0.30769231       0.15384615 </v>
   <v>      -0.34615385       0.30769231       0.15384615 </v>
   <v>       0.50000000       0.34615385       0.15384615 </v>
   <v>      -0.46153846       0.34615385       0.15384615 </v>
   <v>      -0.42307692       0.34615385       0.15384615 </v>
   <v>      -0.38461538       0.34615385       0.15384615 </v>
   <v>      -0.34615385       0.34615385       0.15384615 </v>
   <v>      -0.30769231       0.34615385       0.15384615 </v>
   <v>      -0.26923077       0.34615385       0.15384615 </v>
   <v>      -0.23076923       0.34615385       0.15384615 </v>
   <v>      -0.19230769       0.34615385       0.15384615 </v>
   <v>      -0.46153846       0.38461538       0.15384615 </v>
   <v>      -0.42307692       0.38461538       0.15384615 </v>
   <v>      -0.38461538       0.38461538       0.15384615 </v>
   <v>      -0.34615385       0.38461538       0.15384615 </v>
   <v>      -0.30769231       0.38461538       0.15384615 </v>
   <v>      -0.26923077       0.38461538       0.15384615 </v>
   <v>      -0.23076923       0.38461538       0.15384615 </v>
   <v>      -0.42307692       0.42307692       0.15384615 </v>
   <v>      -0.38461538       0.42307692       0.15384615 </v>
   <v>      -0.34615385       0.42307692       0.15384615 </v>
   <v>      -0.30769231       0.42307692       0.15384615 </v>
   <v>      -0.26923077       0.42307692       0.15384615 </v>
   <v>      -0.38461538       0.46153846       0.15384615 </v>
   <v>      -0.34615385       0.46153846       0.15384615 </v>
   <v>      -0.30769231       0.46153846       0.15384615 </v>
   <v>      -0.34615385       0.50000000       0.15384615 </v>
   <v>      -0.42307692       0.38461538       0.19230769 </v>
   <v>      -0.38461538       0.38461538       0.19230769 </v>
   <v>      -0.34615385       0.38461538       0.19230769 </v>
   <v>      -0.30769231       0.38461538       0.19230769 </v>
   <v>      -0.38461538       0.42307692       0.19230769 </v>
   <v>      -0.34615385       0.42307692       0.19230769 </v>
   <v>      -0.30769231       0.42307692       0.19230769 </v>
   <v>      -0.26923077       0.42307692       0.19230769 </v>
   <v>      -0.23076923       0.42307692       0.19230769 </v>
   <v>      -0.34615385       0.46153846       0.19230769 </v>
   <v>      -0.30769231       0.46153846       0.19230769 </v>
   <v>      -0.26923077       0.46153846       0.19230769 </v>
   <v>      -0.30769231       0.50000000       0.19230769 </v>
   <v>      -0.30769231       0.46153846       0.23076923 </v>
   <v>      -0.26923077       0.46153846       0.23076923 </v>
   <v>      -0.26923077       0.50000000       0.23076923 </v>
  </varray>
  <varray name="weights" >
   <v>       0.00005690 </v>
   <v>       0.00045517 </v>
   <v>       0.00045517 </v>
   <v>       0.00045517 </v>
   <v>       0.00045517 </v>
   <v>       0.00045517 </v>
   <v>       0.00045517 </v>
   <v>       0.00045517 </v>
   <v>       0.00045517 </v>
   <v>       0.00045517 </v>
   <v>       0.00045517 </v>
   <v>       0.00045517 </v>
   <v>       0.00045517 </v>
   <v>       0.00022758 </v>
   <v>       0.00034137 </v>
   <v>       0.00136550 </v>
   <v>       0.00136550 </v>
   <v>       0.00136550 </v>
   <v>       0.00136550 </v>
   <v>       0.00136550 </v>
   <v>       0.00136550 </v>
   <v>       0.00136550 </v>
   <v>       0.00136550 </v>
   <v>       0.00136550 </v>
   <v>       0.00136550 </v>
   <v>       0.00136550 </v>
   <v>       0.00136550 </v>
   <v>       0.00136550 </v>
   <v>       0.00136550 </v>
   <v>       0.00136550 </v>
   <v>       0.00136550 </v>
   <v>       0.00136550 </v>
   <v>       0.00136550 </v>
   <v>       0.00136550 </v>
   <v>       0.00136550 </v>
   <v>       0.00136550 </v>
   <v>       0.00136550 </v>
   <v>       0.00136550 </v>
   <v>       0.00068275 </v>
   <v>       0.00034137 </v>
   <v>       0.00136550 </v>
   <v>       0.00136550 </v>
   <v>       0.00136550 </v>
   <v>       0.00136550 </v>
   <v>       0.00136550 </v>
   <v>       0.00136550 </v>
   <v>       0.00136550 </v>
   <v>       0.00136550 </v>
   <v>       0.00136550 </v>
   <v>       0.00136550 </v>
   <v>       0.00136550 </v>
   <v>       0.00136550 </v>
   <v>       0.00136550 </v>
   <v>       0.00136550 </v>
   <v>       0.00136550 </v>
   <v>       0.00136550 </v>
   <v>       0.00136550 </v>
   <v>       0.00136550 </v>
   <v>       0.00136550 </v>
   <v>       0.00136550 </v>
   <v>       0.00136550 </v>
   <v>       0.00068275 </v>
   <v>       0.00034137 </v>
   <v>       0.00136550 </v>
   <v>       0.00136550 </v>
   <v>       0.00136550 </v>
   <v>       0.00136550 </v>
   <v>       0.00136550 </v>
   <v>       0.00136550 </v>
   <v>       0.00136550 </v>
   <v>       0.00136550 </v>
   <v>       0.00136550 </v>
   <v>       0.00136550 </v>
   <v>       0.00136550 </v>
   <v>       0.00136550 </v>
   <v>       0.00136550 </v>
   <v>       0.00136550 </v>
   <v>       0.00136550 </v>
   <v>       0.00136550 </v>
   <v>       0.00136550 </v>
   <v>       0.00136550 </v>
   <v>       0.00136550 </v>
   <v>       0.00068275 </v>
   <v>       0.00034137 </v>
   <v>       0.00136550 </v>
   <v>       0.00136550 </v>
   <v>       0.00136550 </v>
   <v>       0.00136550 </v>
   <v>       0.00136550 </v>
   <v>       0.00136550 </v>
   <v>       0.00136550 </v>
   <v>       0.00136550 </v>
   <v>       0.00136550 </v>
   <v>       0.00136550 </v>
   <v>       0.00136550 </v>
   <v>       0.00136550 </v>
   <v>       0.00136550 </v>
   <v>       0.00136550 </v>
   <v>       0.00136550 </v>
   <v>       0.00136550 </v>
   <v>       0.00136550 </v>
   <v>       0.00068275 </v>
   <v>       0.00034137 </v>
   <v>       0.00136550 </v>
   <v>       0.00136550 </v>
   <v>       0.00136550 </v>
   <v>       0.00136550 </v>
   <v>       0.00136550 </v>
   <v>       0.00136550 </v>
   <v>       0.00136550 </v>
   <v>       0.00136550 </v>
   <v>       0.00136550 </v>
   <v>       0.00136550 </v>
   <v>       0.00136550 </v>
   <v>       0.00136550 </v>
   <v>       0.00136550 </v>
   <v>       0.00136550 </v>
   <v>       0.00136550 </v>
   <v>       0.00068275 </v>
   <v>       0.00034137 </v>
   <v>       0.00136550 </v>
   <v>       0.00136550 </v>
   <v>       0.00136550 </v>
   <v>       0.00136550 </v>
   <v>       0.00136550 </v>
   <v>       0.00136550 </v>
   <v>       0.00136550 </v>
   <v>       0.00136550 </v>
   <v>       0.00136550 </v>
   <v>       0.00136550 </v>
   <v>       0.00136550 </v>
   <v>       0.00136550 </v>
   <v>       0.00136550 </v>
   <v>       0.00068275 </v>
   <v>       0.00034137 </v>
   <v>       0.00136550 </v>
   <v>       0.00136550 </v>
   <v>       0.00136550 </v>
   <v>       0.00136550 </v>
   <v>       0.00136550 </v>
   <v>       0.00136550 </v>
   <v>       0.00136550 </v>
   <v>       0.00136550 </v>
   <v>       0.00136550 </v>
   <v>       0.00136550 </v>
   <v>       0.00136550 </v>
   <v>       0.00068275 </v>
   <v>       0.00034137 </v>
   <v>       0.00136550 </v>
   <v>       0.00136550 </v>
   <v>       0.00136550 </v>
   <v>       0.00136550 </v>
   <v>       0.00136550 </v>
   <v>       0.00136550 </v>
   <v>       0.00136550 </v>
   <v>       0.00136550 </v>
   <v>       0.00136550 </v>
   <v>       0.00068275 </v>
   <v>       0.00034137 </v>
   <v>       0.00136550 </v>
   <v>       0.00136550 </v>
   <v>       0.00136550 </v>
   <v>       0.00136550 </v>
   <v>       0.00136550 </v>
   <v>       0.00136550 </v>
   <v>       0.00136550 </v>
   <v>       0.00068275 </v>
   <v>       0.00034137 </v>
   <v>       0.00136550 </v>
   <v>       0.00136550 </v>
   <v>       0.00136550 </v>
   <v>       0.00136550 </v>
   <v>       0.00136550 </v>
   <v>       0.00068275 </v>
   <v>       0.00034137 </v>
   <v>       0.00136550 </v>
   <v>       0.00136550 </v>
   <v>       0.00136550 </v>
   <v>       0.00068275 </v>
   <v>       0.00034137 </v>
   <v>       0.00136550 </v>
   <v>       0.00068275 </v>
   <v>       0.00017069 </v>
   <v>       0.00136550 </v>
   <v>       0.00273100 </v>
   <v>       0.00273100 </v>
   <v>       0.00273100 </v>
   <v>       0.00273100 </v>
   <v>       0.00273100 </v>
   <v>       0.00273100 </v>
   <v>       0.00273100 </v>
   <v>       0.00273100 </v>
   <v>       0.00273100 </v>
   <v>       0.00273100 </v>
   <v>       0.00136550 </v>
   <v>       0.00136550 </v>
   <v>       0.00273100 </v>
   <v>       0.00273100 </v>
   <v>       0.00273100 </v>
   <v>       0.00273100 </v>
   <v>       0.00273100 </v>
   <v>       0.00273100 </v>
   <v>       0.00273100 </v>
   <v>       0.00273100 </v>
   <v>       0.00273100 </v>
   <v>       0.00273100 </v>
   <v>       0.00273100 </v>
   <v>       0.00273100 </v>
   <v>       0.00273100 </v>
   <v>       0.00273100 </v>
   <v>       0.00273100 </v>
   <v>       0.00273100 </v>
   <v>       0.00273100 </v>
   <v>       0.00273100 </v>
   <v>       0.00273100 </v>
   <v>       0.00136550 </v>
   <v>       0.00136550 </v>
   <v>       0.00273100 </v>
   <v>       0.00273100 </v>
   <v>       0.00273100 </v>
   <v>       0.00273100 </v>
   <v>       0.00273100 </v>
   <v>       0.00273100 </v>
   <v>       0.00273100 </v>
   <v>       0.00273100 </v>
   <v>       0.00273100 </v>
   <v>       0.00273100 </v>
   <v>       0.00273100 </v>
   <v>       0.00273100 </v>
   <v>       0.00273100 </v>
   <v>       0.00273100 </v>
   <v>       0.00273100 </v>
   <v>       0.00273100 </v>
   <v>       0.00273100 </v>
   <v>       0.00136550 </v>
   <v>       0.00136550 </v>
   <v>       0.00273100 </v>
   <v>       0.00273100 </v>
   <v>       0.00273100 </v>
   <v>       0.00273100 </v>
   <v>       0.00273100 </v>
   <v>       0.00273100 </v>
   <v>       0.00273100 </v>
   <v>       0.00273100 </v>
   <v>       0.00273100 </v>
   <v>       0.00273100 </v>
   <v>       0.00273100 </v>
   <v>       0.00273100 </v>
   <v>       0.00273100 </v>
   <v>       0.00273100 </v>
   <v>       0.00273100 </v>
   <v>       0.00136550 </v>
   <v>       0.00136550 </v>
   <v>       0.00273100 </v>
   <v>       0.00273100 </v>
   <v>       0.00273100 </v>
   <v>       0.00273100 </v>
   <v>       0.00273100 </v>
   <v>       0.00273100 </v>
   <v>       0.00273100 </v>
   <v>       0.00273100 </v>
   <v>       0.00273100 </v>
   <v>       0.00273100 </v>
   <v>       0.00273100 </v>
   <v>       0.00273100 </v>
   <v>       0.00273100 </v>
   <v>       0.00136550 </v>
   <v>       0.00136550 </v>
   <v>       0.00273100 </v>
   <v>       0.00273100 </v>
   <v>       0.00273100 </v>
   <v>       0.00273100 </v>
   <v>       0.00273100 </v>
   <v>       0.00273100 </v>
   <v>       0.00273100 </v>
   <v>       0.00273100 </v>
   <v>       0.00273100 </v>
   <v>       0.00273100 </v>
   <v>       0.00273100 </v>
   <v>       0.00136550 </v>
   <v>       0.00136550 </v>
   <v>       0.00273100 </v>
   <v>       0.00273100 </v>
   <v>       0.00273100 </v>
   <v>       0.00273100 </v>
   <v>       0.00273100 </v>
   <v>       0.00273100 </v>
   <v>       0.00273100 </v>
   <v>       0.00273100 </v>
   <v>       0.00273100 </v>
   <v>       0.00136550 </v>
   <v>       0.00136550 </v>
   <v>       0.00273100 </v>
   <v>       0.00273100 </v>
   <v>       0.00273100 </v>
   <v>       0.00273100 </v>
   <v>       0.00273100 </v>
   <v>       0.00273100 </v>
   <v>       0.00273100 </v>
   <v>       0.00136550 </v>
   <v>       0.00136550 </v>
   <v>       0.00273100 </v>
   <v>       0.00273100 </v>
   <v>       0.00273100 </v>
   <v>       0.00273100 </v>
   <v>       0.00273100 </v>
   <v>       0.00136550 </v>
   <v>       0.00136550 </v>
   <v>       0.00273100 </v>
   <v>       0.00273100 </v>
   <v>       0.00273100 </v>
   <v>       0.00136550 </v>
   <v>       0.00136550 </v>
   <v>       0.00273100 </v>
   <v>       0.00136550 </v>
   <v>       0.00068275 </v>
   <v>       0.00136550 </v>
   <v>       0.00273100 </v>
   <v>       0.00273100 </v>
   <v>       0.00273100 </v>
   <v>       0.00273100 </v>
   <v>       0.00273100 </v>
   <v>       0.00273100 </v>
   <v>       0.00273100 </v>
   <v>       0.00273100 </v>
   <v>       0.00136550 </v>
   <v>       0.00136550 </v>
   <v>       0.00273100 </v>
   <v>       0.00273100 </v>
   <v>       0.00273100 </v>
   <v>       0.00273100 </v>
   <v>       0.00273100 </v>
   <v>       0.00273100 </v>
   <v>       0.00273100 </v>
   <v>       0.00273100 </v>
   <v>       0.00273100 </v>
   <v>       0.00273100 </v>
   <v>       0.00273100 </v>
   <v>       0.00273100 </v>
   <v>       0.00273100 </v>
   <v>       0.00273100 </v>
   <v>       0.00273100 </v>
   <v>       0.00136550 </v>
   <v>       0.00136550 </v>
   <v>       0.00273100 </v>
   <v>       0.00273100 </v>
   <v>       0.00273100 </v>
   <v>       0.00273100 </v>
   <v>       0.00273100 </v>
   <v>       0.00273100 </v>
   <v>       0.00273100 </v>
   <v>       0.00273100 </v>
   <v>       0.00273100 </v>
   <v>       0.00273100 </v>
   <v>       0.00273100 </v>
   <v>       0.00273100 </v>
   <v>       0.00273100 </v>
   <v>       0.00136550 </v>
   <v>       0.00136550 </v>
   <v>       0.00273100 </v>
   <v>       0.00273100 </v>
   <v>       0.00273100 </v>
   <v>       0.00273100 </v>
   <v>       0.00273100 </v>
   <v>       0.00273100 </v>
   <v>       0.00273100 </v>
   <v>       0.00273100 </v>
   <v>       0.00273100 </v>
   <v>       0.00273100 </v>
   <v>       0.00273100 </v>
   <v>       0.00136550 </v>
   <v>       0.00136550 </v>
   <v>       0.00273100 </v>
   <v>       0.00273100 </v>
   <v>       0.00273100 </v>
   <v>       0.00273100 </v>
   <v>       0.00273100 </v>
   <v>       0.00273100 </v>
   <v>       0.00273100 </v>
   <v>       0.00273100 </v>
   <v>       0.00273100 </v>
   <v>       0.00136550 </v>
   <v>       0.00136550 </v>
   <v>       0.00273100 </v>
   <v>       0.00273100 </v>
   <v>       0.00273100 </v>
   <v>       0.00273100 </v>
   <v>       0.00273100 </v>
   <v>       0.00273100 </v>
   <v>       0.00273100 </v>
   <v>       0.00136550 </v>
   <v>       0.00136550 </v>
   <v>       0.00273100 </v>
   <v>       0.00273100 </v>
   <v>       0.00273100 </v>
   <v>       0.00273100 </v>
   <v>       0.00273100 </v>
   <v>       0.00136550 </v>
   <v>       0.00136550 </v>
   <v>       0.00273100 </v>
   <v>       0.00273100 </v>
   <v>       0.00273100 </v>
   <v>       0.00136550 </v>
   <v>       0.00136550 </v>
   <v>       0.00273100 </v>
   <v>       0.00136550 </v>
   <v>       0.00068275 </v>
   <v>       0.00136550 </v>
   <v>       0.00273100 </v>
   <v>       0.00273100 </v>
   <v>       0.00273100 </v>
   <v>       0.00273100 </v>
   <v>       0.00273100 </v>
   <v>       0.00273100 </v>
   <v>       0.00136550 </v>
   <v>       0.00136550 </v>
   <v>       0.00273100 </v>
   <v>       0.00273100 </v>
   <v>       0.00273100 </v>
   <v>       0.00273100 </v>
   <v>       0.00273100 </v>
   <v>       0.00273100 </v>
   <v>       0.00273100 </v>
   <v>       0.00273100 </v>
   <v>       0.00273100 </v>
   <v>       0.00273100 </v>
   <v>       0.00273100 </v>
   <v>       0.00136550 </v>
   <v>       0.00136550 </v>
   <v>       0.00273100 </v>
   <v>       0.00273100 </v>
   <v>       0.00273100 </v>
   <v>       0.00273100 </v>
   <v>       0.00273100 </v>
   <v>       0.00273100 </v>
   <v>       0.00273100 </v>
   <v>       0.00273100 </v>
   <v>       0.00273100 </v>
   <v>       0.00136550 </v>
   <v>       0.00136550 </v>
   <v>       0.00273100 </v>
   <v>       0.00273100 </v>
   <v>       0.00273100 </v>
   <v>       0.00273100 </v>
   <v>       0.00273100 </v>
   <v>       0.00273100 </v>
   <v>       0.00273100 </v>
   <v>       0.00136550 </v>
   <v>       0.00136550 </v>
   <v>       0.00273100 </v>
   <v>       0.00273100 </v>
   <v>       0.00273100 </v>
   <v>       0.00273100 </v>
   <v>       0.00273100 </v>
   <v>       0.00136550 </v>
   <v>       0.00136550 </v>
   <v>       0.00273100 </v>
   <v>       0.00273100 </v>
   <v>       0.00273100 </v>
   <v>       0.00136550 </v>
   <v>       0.00136550 </v>
   <v>       0.00273100 </v>
   <v>       0.00136550 </v>
   <v>       0.00068275 </v>
   <v>       0.00136550 </v>
   <v>       0.00273100 </v>
   <v>       0.00273100 </v>
   <v>       0.00273100 </v>
   <v>       0.00273100 </v>
   <v>       0.00136550 </v>
   <v>       0.00136550 </v>
   <v>       0.00273100 </v>
   <v>       0.00273100 </v>
   <v>       0.00273100 </v>
   <v>       0.00273100 </v>
   <v>       0.00273100 </v>
   <v>       0.00273100 </v>
   <v>       0.00273100 </v>
   <v>       0.00136550 </v>
   <v>       0.00136550 </v>
   <v>       0.00273100 </v>
   <v>       0.00273100 </v>
   <v>       0.00273100 </v>
   <v>       0.00273100 </v>
   <v>       0.00273100 </v>
   <v>       0.00136550 </v>
   <v>       0.00136550 </v>
   <v>       0.00273100 </v>
   <v>       0.00273100 </v>
   <v>       0.00273100 </v>
   <v>       0.00136550 </v>
   <v>       0.00136550 </v>
   <v>       0.00273100 </v>
   <v>       0.00136550 </v>
   <v>       0.00068275 </v>
   <v>       0.00136550 </v>
   <v>       0.00273100 </v>
   <v>       0.00273100 </v>
   <v>       0.00136550 </v>
   <v>       0.00136550 </v>
   <v>       0.00273100 </v>
   <v>       0.00273100 </v>
   <v>       0.00273100 </v>
   <v>       0.00136550 </v>
   <v>       0.00136550 </v>
   <v>       0.00273100 </v>
   <v>       0.00136550 </v>
   <v>       0.00068275 </v>
   <v>       0.00136550 </v>
   <v>       0.00136550 </v>
   <v>       0.00068275 </v>
  </varray>
  <varray name="tetrahedronlist"  type="int" >
   <v type="int" >       24        1        2        2       15 </v>
   <v type="int" >       48        2       15       16       39 </v>
   <v type="int" >       48        2        3       16       39 </v>
   <v type="int" >       24        2        2       15       39 </v>
   <v type="int" >       48        3       16       17       38 </v>
   <v type="int" >       48        3        4       17       38 </v>
   <v type="int" >       48        3       16       38       39 </v>
   <v type="int" >       48        4       17       18       37 </v>
   <v type="int" >       48        4        5       18       37 </v>
   <v type="int" >       48        4       17       37       38 </v>
   <v type="int" >       48        5       18       19       36 </v>
   <v type="int" >       48        5        6       19       36 </v>
   <v type="int" >       48        5       18       36       37 </v>
   <v type="int" >       48        6       19       20       35 </v>
   <v type="int" >       48        6        7       20       35 </v>
   <v type="int" >       48        6       19       35       36 </v>
   <v type="int" >       48        7       20       21       34 </v>
   <v type="int" >       48        7        8       21       34 </v>
   <v type="int" >       48        7       20       34       35 </v>
   <v type="int" >       48        8       21       22       33 </v>
   <v type="int" >       48        8        9       22       33 </v>
   <v type="int" >       48        8       21       33       34 </v>
   <v type="int" >       48        9       22       23       32 </v>
   <v type="int" >       48        9       10       23       32 </v>
   <v type="int" >       48        9       22       32       33 </v>
   <v type="int" >       48       10       23       24       31 </v>
   <v type="int" >       48       10       11       24       31 </v>
   <v type="int" >       48       10       23       31       32 </v>
   <v type="int" >       48       11       24       25       30 </v>
   <v type="int" >       48       11       12       25       30 </v>
   <v type="int" >       48       11       24       30       31 </v>
   <v type="int" >       48       12       25       26       29 </v>
   <v type="int" >       48       12       13       26       29 </v>
   <v type="int" >       48       12       25       29       30 </v>
   <v type="int" >       48       13       26       27       28 </v>
   <v type="int" >       48       13       14       27       28 </v>
   <v type="int" >       48       13       26       28       29 </v>
   <v type="int" >       48       14       27       27       28 </v>
   <v type="int" >       24       15       16       16       40 </v>
   <v type="int" >       24       15       16       16       39 </v>
   <v type="int" >       48       16       40       41      184 </v>
   <v type="int" >       48       16       17       41      184 </v>
   <v type="int" >       48       16       17       38      184 </v>
   <v type="int" >       24       16       16       40      184 </v>
   <v type="int" >       24       16       16       39      184 </v>
   <v type="int" >       48       16       38       39      184 </v>
   <v type="int" >       48       17       41       42      185 </v>
   <v type="int" >       48       17       18       42      185 </v>
   <v type="int" >       48       17       18       37      185 </v>
   <v type="int" >       48       17       41      184      185 </v>
   <v type="int" >       48       17       38      184      185 </v>
   <v type="int" >       48       17       37       38      185 </v>
   <v type="int" >       48       18       42       43      186 </v>
   <v type="int" >       48       18       19       43      186 </v>
   <v type="int" >       48       18       19       36      186 </v>
   <v type="int" >       48       18       42      185      186 </v>
   <v type="int" >       48       18       37      185      186 </v>
   <v type="int" >       48       18       36       37      186 </v>
   <v type="int" >       48       19       43       44      187 </v>
   <v type="int" >       48       19       20       44      187 </v>
   <v type="int" >       48       19       20       35      187 </v>
   <v type="int" >       48       19       43      186      187 </v>
   <v type="int" >       48       19       36      186      187 </v>
   <v type="int" >       48       19       35       36      187 </v>
   <v type="int" >       48       20       44       45      188 </v>
   <v type="int" >       48       20       21       45      188 </v>
   <v type="int" >       48       20       21       34      188 </v>
   <v type="int" >       48       20       44      187      188 </v>
   <v type="int" >       48       20       35      187      188 </v>
   <v type="int" >       48       20       34       35      188 </v>
   <v type="int" >       48       21       45       46      189 </v>
   <v type="int" >       48       21       22       46      189 </v>
   <v type="int" >       48       21       22       33      189 </v>
   <v type="int" >       48       21       45      188      189 </v>
   <v type="int" >       48       21       34      188      189 </v>
   <v type="int" >       48       21       33       34      189 </v>
   <v type="int" >       48       22       46       47      190 </v>
   <v type="int" >       48       22       23       47      190 </v>
   <v type="int" >       48       22       23       32      190 </v>
   <v type="int" >       48       22       46      189      190 </v>
   <v type="int" >       48       22       33      189      190 </v>
   <v type="int" >       48       22       32       33      190 </v>
   <v type="int" >       48       23       47       48      191 </v>
   <v type="int" >       48       23       24       48      191 </v>
   <v type="int" >       48       23       24       31      191 </v>
   <v type="int" >       48       23       47      190      191 </v>
   <v type="int" >       48       23       32      190      191 </v>
   <v type="int" >       48       23       31       32      191 </v>
   <v type="int" >       48       24       48       49      192 </v>
   <v type="int" >       48       24       25       49      192 </v>
   <v type="int" >       48       24       25       30      192 </v>
   <v type="int" >       48       24       48      191      192 </v>
   <v type="int" >       48       24       31      191      192 </v>
   <v type="int" >       48       24       30       31      192 </v>
   <v type="int" >       48       25       49       50      193 </v>
   <v type="int" >       48       25       26       50      193 </v>
   <v type="int" >       48       25       26       29      193 </v>
   <v type="int" >       48       25       49      192      193 </v>
   <v type="int" >       48       25       30      192      193 </v>
   <v type="int" >       48       25       29       30      193 </v>
   <v type="int" >       48       26       50       51      194 </v>
   <v type="int" >       48       26       27       51      194 </v>
   <v type="int" >       48       26       27       28      194 </v>
   <v type="int" >       48       26       50      193      194 </v>
   <v type="int" >       48       26       29      193      194 </v>
   <v type="int" >       48       26       28       29      194 </v>
   <v type="int" >       48       27       51       52      195 </v>
   <v type="int" >       48       27       28       52      195 </v>
   <v type="int" >       48       27       27       28      195 </v>
   <v type="int" >       48       27       51      194      195 </v>
   <v type="int" >       48       27       28      194      195 </v>
   <v type="int" >       48       28       52       53      194 </v>
   <v type="int" >       48       28       29       53      194 </v>
   <v type="int" >       48       28       52      194      195 </v>
   <v type="int" >       48       29       53       54      193 </v>
   <v type="int" >       48       29       30       54      193 </v>
   <v type="int" >       48       29       53      193      194 </v>
   <v type="int" >       48       30       54       55      192 </v>
   <v type="int" >       48       30       31       55      192 </v>
   <v type="int" >       48       30       54      192      193 </v>
   <v type="int" >       48       31       55       56      191 </v>
   <v type="int" >       48       31       32       56      191 </v>
   <v type="int" >       48       31       55      191      192 </v>
   <v type="int" >       48       32       56       57      190 </v>
   <v type="int" >       48       32       33       57      190 </v>
   <v type="int" >       48       32       56      190      191 </v>
   <v type="int" >       48       33       57       58      189 </v>
   <v type="int" >       48       33       34       58      189 </v>
   <v type="int" >       48       33       57      189      190 </v>
   <v type="int" >       48       34       58       59      188 </v>
   <v type="int" >       48       34       35       59      188 </v>
   <v type="int" >       48       34       58      188      189 </v>
   <v type="int" >       48       35       59       60      187 </v>
   <v type="int" >       48       35       36       60      187 </v>
   <v type="int" >       48       35       59      187      188 </v>
   <v type="int" >       48       36       60       61      186 </v>
   <v type="int" >       48       36       37       61      186 </v>
   <v type="int" >       48       36       60      186      187 </v>
   <v type="int" >       48       37       61       62      185 </v>
   <v type="int" >       48       37       38       62      185 </v>
   <v type="int" >       48       37       61      185      186 </v>
   <v type="int" >       24       38       38       62      184 </v>
   <v type="int" >       24       38       38       39      184 </v>
   <v type="int" >       48       38       62      184      185 </v>
   <v type="int" >       24       40       41       41       63 </v>
   <v type="int" >       24       40       41       41      184 </v>
   <v type="int" >       48       41       63       64      196 </v>
   <v type="int" >       48       41       42       64      196 </v>
   <v type="int" >       48       41       42      185      196 </v>
   <v type="int" >       24       41       41       63      196 </v>
   <v type="int" >       24       41       41      184      196 </v>
   <v type="int" >       48       41      184      185      196 </v>
   <v type="int" >       48       42       64       65      197 </v>
   <v type="int" >       48       42       43       65      197 </v>
   <v type="int" >       48       42       43      186      197 </v>
   <v type="int" >       48       42       64      196      197 </v>
   <v type="int" >       48       42      185      196      197 </v>
   <v type="int" >       48       42      185      186      197 </v>
   <v type="int" >       48       43       65       66      198 </v>
   <v type="int" >       48       43       44       66      198 </v>
   <v type="int" >       48       43       44      187      198 </v>
   <v type="int" >       48       43       65      197      198 </v>
   <v type="int" >       48       43      186      197      198 </v>
   <v type="int" >       48       43      186      187      198 </v>
   <v type="int" >       48       44       66       67      199 </v>
   <v type="int" >       48       44       45       67      199 </v>
   <v type="int" >       48       44       45      188      199 </v>
   <v type="int" >       48       44       66      198      199 </v>
   <v type="int" >       48       44      187      198      199 </v>
   <v type="int" >       48       44      187      188      199 </v>
   <v type="int" >       48       45       67       68      200 </v>
   <v type="int" >       48       45       46       68      200 </v>
   <v type="int" >       48       45       46      189      200 </v>
   <v type="int" >       48       45       67      199      200 </v>
   <v type="int" >       48       45      188      199      200 </v>
   <v type="int" >       48       45      188      189      200 </v>
   <v type="int" >       48       46       68       69      201 </v>
   <v type="int" >       48       46       47       69      201 </v>
   <v type="int" >       48       46       47      190      201 </v>
   <v type="int" >       48       46       68      200      201 </v>
   <v type="int" >       48       46      189      200      201 </v>
   <v type="int" >       48       46      189      190      201 </v>
   <v type="int" >       48       47       69       70      202 </v>
   <v type="int" >       48       47       48       70      202 </v>
   <v type="int" >       48       47       48      191      202 </v>
   <v type="int" >       48       47       69      201      202 </v>
   <v type="int" >       48       47      190      201      202 </v>
   <v type="int" >       48       47      190      191      202 </v>
   <v type="int" >       48       48       70       71      203 </v>
   <v type="int" >       48       48       49       71      203 </v>
   <v type="int" >       48       48       49      192      203 </v>
   <v type="int" >       48       48       70      202      203 </v>
   <v type="int" >       48       48      191      202      203 </v>
   <v type="int" >       48       48      191      192      203 </v>
   <v type="int" >       48       49       71       72      204 </v>
   <v type="int" >       48       49       50       72      204 </v>
   <v type="int" >       48       49       50      193      204 </v>
   <v type="int" >       48       49       71      203      204 </v>
   <v type="int" >       48       49      192      203      204 </v>
   <v type="int" >       48       49      192      193      204 </v>
   <v type="int" >       48       50       72       73      205 </v>
   <v type="int" >       48       50       51       73      205 </v>
   <v type="int" >       48       50       51      194      205 </v>
   <v type="int" >       48       50       72      204      205 </v>
   <v type="int" >       48       50      193      204      205 </v>
   <v type="int" >       48       50      193      194      205 </v>
   <v type="int" >       48       51       73       74      206 </v>
   <v type="int" >       48       51       52       74      206 </v>
   <v type="int" >       48       51       52      195      206 </v>
   <v type="int" >       48       51       73      205      206 </v>
   <v type="int" >       48       51      194      205      206 </v>
   <v type="int" >       48       51      194      195      206 </v>
   <v type="int" >       48       52       74       75      207 </v>
   <v type="int" >       48       52       53       75      207 </v>
   <v type="int" >       48       52       53      194      207 </v>
   <v type="int" >       48       52       74      206      207 </v>
   <v type="int" >       48       52      195      206      207 </v>
   <v type="int" >       48       52      194      195      207 </v>
   <v type="int" >       48       53       75       76      208 </v>
   <v type="int" >       48       53       54       76      208 </v>
   <v type="int" >       48       53       54      193      208 </v>
   <v type="int" >       48       53       75      207      208 </v>
   <v type="int" >       48       53      194      207      208 </v>
   <v type="int" >       48       53      193      194      208 </v>
   <v type="int" >       48       54       76       77      209 </v>
   <v type="int" >       48       54       55       77      209 </v>
   <v type="int" >       48       54       55      192      209 </v>
   <v type="int" >       48       54       76      208      209 </v>
   <v type="int" >       48       54      193      208      209 </v>
   <v type="int" >       48       54      192      193      209 </v>
   <v type="int" >       48       55       77       78      210 </v>
   <v type="int" >       48       55       56       78      210 </v>
   <v type="int" >       48       55       56      191      210 </v>
   <v type="int" >       48       55       77      209      210 </v>
   <v type="int" >       48       55      192      209      210 </v>
   <v type="int" >       48       55      191      192      210 </v>
   <v type="int" >       48       56       78       79      211 </v>
   <v type="int" >       48       56       57       79      211 </v>
   <v type="int" >       48       56       57      190      211 </v>
   <v type="int" >       48       56       78      210      211 </v>
   <v type="int" >       48       56      191      210      211 </v>
   <v type="int" >       48       56      190      191      211 </v>
   <v type="int" >       48       57       79       80      212 </v>
   <v type="int" >       48       57       58       80      212 </v>
   <v type="int" >       48       57       58      189      212 </v>
   <v type="int" >       48       57       79      211      212 </v>
   <v type="int" >       48       57      190      211      212 </v>
   <v type="int" >       48       57      189      190      212 </v>
   <v type="int" >       48       58       80       81      213 </v>
   <v type="int" >       48       58       59       81      213 </v>
   <v type="int" >       48       58       59      188      213 </v>
   <v type="int" >       48       58       80      212      213 </v>
   <v type="int" >       48       58      189      212      213 </v>
   <v type="int" >       48       58      188      189      213 </v>
   <v type="int" >       48       59       81       82      214 </v>
   <v type="int" >       48       59       60       82      214 </v>
   <v type="int" >       48       59       60      187      214 </v>
   <v type="int" >       48       59       81      213      214 </v>
   <v type="int" >       48       59      188      213      214 </v>
   <v type="int" >       48       59      187      188      214 </v>
   <v type="int" >       48       60       82       83      215 </v>
   <v type="int" >       48       60       61       83      215 </v>
   <v type="int" >       48       60       61      186      215 </v>
   <v type="int" >       48       60       82      214      215 </v>
   <v type="int" >       48       60      187      214      215 </v>
   <v type="int" >       48       60      186      187      215 </v>
   <v type="int" >       24       61       61       83      216 </v>
   <v type="int" >       24       61       61       62      216 </v>
   <v type="int" >       48       61       62      185      216 </v>
   <v type="int" >       48       61       83      215      216 </v>
   <v type="int" >       48       61      186      215      216 </v>
   <v type="int" >       48       61      185      186      216 </v>
   <v type="int" >       24       62      185      185      216 </v>
   <v type="int" >       24       62      184      185      185 </v>
   <v type="int" >       24       63       64       64       84 </v>
   <v type="int" >       24       63       64       64      196 </v>
   <v type="int" >       48       64       84       85      217 </v>
   <v type="int" >       48       64       65       85      217 </v>
   <v type="int" >       48       64       65      197      217 </v>
   <v type="int" >       24       64       64       84      217 </v>
   <v type="int" >       24       64       64      196      217 </v>
   <v type="int" >       48       64      196      197      217 </v>
   <v type="int" >       48       65       85       86      218 </v>
   <v type="int" >       48       65       66       86      218 </v>
   <v type="int" >       48       65       66      198      218 </v>
   <v type="int" >       48       65       85      217      218 </v>
   <v type="int" >       48       65      197      217      218 </v>
   <v type="int" >       48       65      197      198      218 </v>
   <v type="int" >       48       66       86       87      219 </v>
   <v type="int" >       48       66       67       87      219 </v>
   <v type="int" >       48       66       67      199      219 </v>
   <v type="int" >       48       66       86      218      219 </v>
   <v type="int" >       48       66      198      218      219 </v>
   <v type="int" >       48       66      198      199      219 </v>
   <v type="int" >       48       67       87       88      220 </v>
   <v type="int" >       48       67       68       88      220 </v>
   <v type="int" >       48       67       68      200      220 </v>
   <v type="int" >       48       67       87      219      220 </v>
   <v type="int" >       48       67      199      219      220 </v>
   <v type="int" >       48       67      199      200      220 </v>
   <v type="int" >       48       68       88       89      221 </v>
   <v type="int" >       48       68       69       89      221 </v>
   <v type="int" >       48       68       69      201      221 </v>
   <v type="int" >       48       68       88      220      221 </v>
   <v type="int" >       48       68      200      220      221 </v>
   <v type="int" >       48       68      200      201      221 </v>
   <v type="int" >       48       69       89       90      222 </v>
   <v type="int" >       48       69       70       90      222 </v>
   <v type="int" >       48       69       70      202      222 </v>
   <v type="int" >       48       69       89      221      222 </v>
   <v type="int" >       48       69      201      221      222 </v>
   <v type="int" >       48       69      201      202      222 </v>
   <v type="int" >       48       70       90       91      223 </v>
   <v type="int" >       48       70       71       91      223 </v>
   <v type="int" >       48       70       71      203      223 </v>
   <v type="int" >       48       70       90      222      223 </v>
   <v type="int" >       48       70      202      222      223 </v>
   <v type="int" >       48       70      202      203      223 </v>
   <v type="int" >       48       71       91       92      224 </v>
   <v type="int" >       48       71       72       92      224 </v>
   <v type="int" >       48       71       72      204      224 </v>
   <v type="int" >       48       71       91      223      224 </v>
   <v type="int" >       48       71      203      223      224 </v>
   <v type="int" >       48       71      203      204      224 </v>
   <v type="int" >       48       72       92       93      225 </v>
   <v type="int" >       48       72       73       93      225 </v>
   <v type="int" >       48       72       73      205      225 </v>
   <v type="int" >       48       72       92      224      225 </v>
   <v type="int" >       48       72      204      224      225 </v>
   <v type="int" >       48       72      204      205      225 </v>
   <v type="int" >       48       73       93       94      226 </v>
   <v type="int" >       48       73       74       94      226 </v>
   <v type="int" >       48       73       74      206      226 </v>
   <v type="int" >       48       73       93      225      226 </v>
   <v type="int" >       48       73      205      225      226 </v>
   <v type="int" >       48       73      205      206      226 </v>
   <v type="int" >       48       74       94       95      227 </v>
   <v type="int" >       48       74       75       95      227 </v>
   <v type="int" >       48       74       75      207      227 </v>
   <v type="int" >       48       74       94      226      227 </v>
   <v type="int" >       48       74      206      226      227 </v>
   <v type="int" >       48       74      206      207      227 </v>
   <v type="int" >       48       75       95       96      228 </v>
   <v type="int" >       48       75       76       96      228 </v>
   <v type="int" >       48       75       76      208      228 </v>
   <v type="int" >       48       75       95      227      228 </v>
   <v type="int" >       48       75      207      227      228 </v>
   <v type="int" >       48       75      207      208      228 </v>
   <v type="int" >       48       76       96       97      229 </v>
   <v type="int" >       48       76       77       97      229 </v>
   <v type="int" >       48       76       77      209      229 </v>
   <v type="int" >       48       76       96      228      229 </v>
   <v type="int" >       48       76      208      228      229 </v>
   <v type="int" >       48       76      208      209      229 </v>
   <v type="int" >       48       77       97       98      230 </v>
   <v type="int" >       48       77       78       98      230 </v>
   <v type="int" >       48       77       78      210      230 </v>
   <v type="int" >       48       77       97      229      230 </v>
   <v type="int" >       48       77      209      229      230 </v>
   <v type="int" >       48       77      209      210      230 </v>
   <v type="int" >       48       78       98       99      231 </v>
   <v type="int" >       48       78       79       99      231 </v>
   <v type="int" >       48       78       79      211      231 </v>
   <v type="int" >       48       78       98      230      231 </v>
   <v type="int" >       48       78      210      230      231 </v>
   <v type="int" >       48       78      210      211      231 </v>
   <v type="int" >       48       79       99      100      232 </v>
   <v type="int" >       48       79       80      100      232 </v>
   <v type="int" >       48       79       80      212      232 </v>
   <v type="int" >       48       79       99      231      232 </v>
   <v type="int" >       48       79      211      231      232 </v>
   <v type="int" >       48       79      211      212      232 </v>
   <v type="int" >       48       80      100      101      233 </v>
   <v type="int" >       48       80       81      101      233 </v>
   <v type="int" >       48       80       81      213      233 </v>
   <v type="int" >       48       80      100      232      233 </v>
   <v type="int" >       48       80      212      232      233 </v>
   <v type="int" >       48       80      212      213      233 </v>
   <v type="int" >       48       81      101      102      234 </v>
   <v type="int" >       48       81       82      102      234 </v>
   <v type="int" >       48       81       82      214      234 </v>
   <v type="int" >       48       81      101      233      234 </v>
   <v type="int" >       48       81      213      233      234 </v>
   <v type="int" >       48       81      213      214      234 </v>
   <v type="int" >       24       82       82      102      235 </v>
   <v type="int" >       24       82       82       83      235 </v>
   <v type="int" >       48       82       83      215      235 </v>
   <v type="int" >       48       82      102      234      235 </v>
   <v type="int" >       48       82      214      234      235 </v>
   <v type="int" >       48       82      214      215      235 </v>
   <v type="int" >       24       83      215      215      235 </v>
   <v type="int" >       24       83      215      215      216 </v>
   <v type="int" >       24       84       85       85      103 </v>
   <v type="int" >       24       84       85       85      217 </v>
   <v type="int" >       48       85      103      104      236 </v>
   <v type="int" >       48       85       86      104      236 </v>
   <v type="int" >       48       85       86      218      236 </v>
   <v type="int" >       24       85       85      103      236 </v>
   <v type="int" >       24       85       85      217      236 </v>
   <v type="int" >       48       85      217      218      236 </v>
   <v type="int" >       48       86      104      105      237 </v>
   <v type="int" >       48       86       87      105      237 </v>
   <v type="int" >       48       86       87      219      237 </v>
   <v type="int" >       48       86      104      236      237 </v>
   <v type="int" >       48       86      218      236      237 </v>
   <v type="int" >       48       86      218      219      237 </v>
   <v type="int" >       48       87      105      106      238 </v>
   <v type="int" >       48       87       88      106      238 </v>
   <v type="int" >       48       87       88      220      238 </v>
   <v type="int" >       48       87      105      237      238 </v>
   <v type="int" >       48       87      219      237      238 </v>
   <v type="int" >       48       87      219      220      238 </v>
   <v type="int" >       48       88      106      107      239 </v>
   <v type="int" >       48       88       89      107      239 </v>
   <v type="int" >       48       88       89      221      239 </v>
   <v type="int" >       48       88      106      238      239 </v>
   <v type="int" >       48       88      220      238      239 </v>
   <v type="int" >       48       88      220      221      239 </v>
   <v type="int" >       48       89      107      108      240 </v>
   <v type="int" >       48       89       90      108      240 </v>
   <v type="int" >       48       89       90      222      240 </v>
   <v type="int" >       48       89      107      239      240 </v>
   <v type="int" >       48       89      221      239      240 </v>
   <v type="int" >       48       89      221      222      240 </v>
   <v type="int" >       48       90      108      109      241 </v>
   <v type="int" >       48       90       91      109      241 </v>
   <v type="int" >       48       90       91      223      241 </v>
   <v type="int" >       48       90      108      240      241 </v>
   <v type="int" >       48       90      222      240      241 </v>
   <v type="int" >       48       90      222      223      241 </v>
   <v type="int" >       48       91      109      110      242 </v>
   <v type="int" >       48       91       92      110      242 </v>
   <v type="int" >       48       91       92      224      242 </v>
[...]
       </set>
       <set comment="band 5">
        <r>  0.0253  0.0479  0.0199  0.0168  0.0000  0.0000  0.0000  0.0000  0.0000 </r>
        <r>  0.0253  0.0479  0.0199  0.0168  0.0000  0.0000  0.0000  0.0000  0.0000 </r>
       </set>
       <set comment="band 6">
        <r>  0.0109  0.0662  0.0074  0.0093  0.0000  0.0000  0.0000  0.0000  0.0000 </r>
        <r>  0.0109  0.0662  0.0074  0.0093  0.0000  0.0000  0.0000  0.0000  0.0000 </r>
       </set>
       <set comment="band 7">
        <r>  0.0588  0.0144  0.0367  0.0470  0.0000  0.0000  0.0000  0.0000  0.0000 </r>
        <r>  0.0588  0.0144  0.0367  0.0470  0.0000  0.0000  0.0000  0.0000  0.0000 </r>
       </set>
       <set comment="band 8">
        <r>  0.0278  0.0364  0.0431  0.0276  0.0000  0.0000  0.0000  0.0000  0.0000 </r>
        <r>  0.0278  0.0364  0.0431  0.0276  0.0000  0.0000  0.0000  0.0000  0.0000 </r>
       </set>
      </set>
      <set comment="kpoint 502">
       <set comment="band 1">
        <r>  0.2095  0.0007  0.0207  0.0147  0.0000  0.0000  0.0000  0.0000  0.0000 </r>
        <r>  0.2095  0.0007  0.0207  0.0147  0.0000  0.0000  0.0000  0.0000  0.0000 </r>
       </set>
       <set comment="band 2">
        <r>  0.1926  0.0017  0.0288  0.0227  0.0000  0.0000  0.0000  0.0000  0.0000 </r>
        <r>  0.1926  0.0017  0.0288  0.0227  0.0000  0.0000  0.0000  0.0000  0.0000 </r>
       </set>
       <set comment="band 3">
        <r>  0.0026  0.0630  0.0457  0.0517  0.0000  0.0000  0.0000  0.0000  0.0000 </r>
        <r>  0.0026  0.0630  0.0457  0.0517  0.0000  0.0000  0.0000  0.0000  0.0000 </r>
       </set>
       <set comment="band 4">
        <r>  0.0008  0.0798  0.0392  0.0526  0.0000  0.0000  0.0000  0.0000  0.0000 </r>
        <r>  0.0008  0.0798  0.0392  0.0526  0.0000  0.0000  0.0000  0.0000  0.0000 </r>
       </set>
       <set comment="band 5">
        <r>  0.0215  0.0546  0.0167  0.0123  0.0000  0.0000  0.0000  0.0000  0.0000 </r>
        <r>  0.0215  0.0546  0.0167  0.0123  0.0000  0.0000  0.0000  0.0000  0.0000 </r>
       </set>
       <set comment="band 6">
        <r>  0.0136  0.0692  0.0094  0.0098  0.0000  0.0000  0.0000  0.0000  0.0000 </r>
        <r>  0.0136  0.0692  0.0094  0.0098  0.0000  0.0000  0.0000  0.0000  0.0000 </r>
       </set>
       <set comment="band 7">
        <r>  0.0503  0.0170  0.0332  0.0451  0.0000  0.0000  0.0000  0.0000  0.0000 </r>
        <r>  0.0503  0.0170  0.0332  0.0451  0.0000  0.0000  0.0000  0.0000  0.0000 </r>
       </set>
       <set comment="band 8">
        <r>  0.0375  0.0251  0.0457  0.0350  0.0000  0.0000  0.0000  0.0000  0.0000 </r>
        <r>  0.0375  0.0251  0.0457  0.0350  0.0000  0.0000  0.0000  0.0000  0.0000 </r>
       </set>
      </set>
      <set comment="kpoint 503">
       <set comment="band 1">
        <r>  0.2098  0.0011  0.0147  0.0196  0.0000  0.0000  0.0000  0.0000  0.0000 </r>
        <r>  0.2098  0.0011  0.0147  0.0196  0.0000  0.0000  0.0000  0.0000  0.0000 </r>
       </set>
       <set comment="band 2">
        <r>  0.1919  0.0018  0.0294  0.0230  0.0000  0.0000  0.0000  0.0000  0.0000 </r>
        <r>  0.1919  0.0018  0.0294  0.0230  0.0000  0.0000  0.0000  0.0000  0.0000 </r>
       </set>
       <set comment="band 3">
        <r>  0.0024  0.0622  0.0569  0.0408  0.0000  0.0000  0.0000  0.0000  0.0000 </r>
        <r>  0.0024  0.0622  0.0569  0.0408  0.0000  0.0000  0.0000  0.0000  0.0000 </r>
       </set>
       <set comment="band 4">
        <r>  0.0012  0.0802  0.0356  0.0563  0.0000  0.0000  0.0000  0.0000  0.0000 </r>
        <r>  0.0012  0.0802  0.0356  0.0563  0.0000  0.0000  0.0000  0.0000  0.0000 </r>
       </set>
       <set comment="band 5">
        <r>  0.0169  0.0615  0.0140  0.0087  0.0000  0.0000  0.0000  0.0000  0.0000 </r>
        <r>  0.0169  0.0615  0.0140  0.0087  0.0000  0.0000  0.0000  0.0000  0.0000 </r>
       </set>
       <set comment="band 6">
        <r>  0.0247  0.0538  0.0201  0.0182  0.0000  0.0000  0.0000  0.0000  0.0000 </r>
        <r>  0.0247  0.0538  0.0201  0.0182  0.0000  0.0000  0.0000  0.0000  0.0000 </r>
       </set>
       <set comment="band 7">
        <r>  0.0409  0.0331  0.0323  0.0236  0.0000  0.0000  0.0000  0.0000  0.0000 </r>
        <r>  0.0409  0.0331  0.0323  0.0236  0.0000  0.0000  0.0000  0.0000  0.0000 </r>
       </set>
       <set comment="band 8">
        <r>  0.0403  0.0166  0.0370  0.0539  0.0000  0.0000  0.0000  0.0000  0.0000 </r>
        <r>  0.0403  0.0166  0.0370  0.0539  0.0000  0.0000  0.0000  0.0000  0.0000 </r>
       </set>
      </set>
      <set comment="kpoint 504">
       <set comment="band 1">
        <r>  0.2090  0.0017  0.0101  0.0217  0.0000  0.0000  0.0000  0.0000  0.0000 </r>
        <r>  0.2090  0.0017  0.0101  0.0217  0.0000  0.0000  0.0000  0.0000  0.0000 </r>
       </set>
       <set comment="band 2">
        <r>  0.1896  0.0022  0.0289  0.0261  0.0000  0.0000  0.0000  0.0000  0.0000 </r>
        <r>  0.1896  0.0022  0.0289  0.0261  0.0000  0.0000  0.0000  0.0000  0.0000 </r>
       </set>
       <set comment="band 3">
        <r>  0.0037  0.0607  0.0653  0.0337  0.0000  0.0000  0.0000  0.0000  0.0000 </r>
        <r>  0.0037  0.0607  0.0653  0.0337  0.0000  0.0000  0.0000  0.0000  0.0000 </r>
       </set>
       <set comment="band 4">
        <r>  0.0015  0.0822  0.0351  0.0567  0.0000  0.0000  0.0000  0.0000  0.0000 </r>
        <r>  0.0015  0.0822  0.0351  0.0567  0.0000  0.0000  0.0000  0.0000  0.0000 </r>
       </set>
       <set comment="band 5">
        <r>  0.0098  0.0702  0.0095  0.0043  0.0000  0.0000  0.0000  0.0000  0.0000 </r>
        <r>  0.0098  0.0702  0.0095  0.0043  0.0000  0.0000  0.0000  0.0000  0.0000 </r>
       </set>
       <set comment="band 6">
        <r>  0.0212  0.0524  0.0228  0.0212  0.0000  0.0000  0.0000  0.0000  0.0000 </r>
        <r>  0.0212  0.0524  0.0228  0.0212  0.0000  0.0000  0.0000  0.0000  0.0000 </r>
       </set>
       <set comment="band 7">
        <r>  0.0633  0.0089  0.0434  0.0330  0.0000  0.0000  0.0000  0.0000  0.0000 </r>
        <r>  0.0633  0.0089  0.0434  0.0330  0.0000  0.0000  0.0000  0.0000  0.0000 </r>
       </set>
       <set comment="band 8">
        <r>  0.0280  0.0306  0.0265  0.0490  0.0000  0.0000  0.0000  0.0000  0.0000 </r>
        <r>  0.0280  0.0306  0.0265  0.0490  0.0000  0.0000  0.0000  0.0000  0.0000 </r>
       </set>
      </set>
      <set comment="kpoint 505">
       <set comment="band 1">
        <r>  0.2048  0.0005  0.0289  0.0091  0.0000  0.0000  0.0000  0.0000  0.0000 </r>
        <r>  0.2048  0.0005  0.0289  0.0091  0.0000  0.0000  0.0000  0.0000  0.0000 </r>
       </set>
       <set comment="band 2">
        <r>  0.1973  0.0003  0.0335  0.0170  0.0000  0.0000  0.0000  0.0000  0.0000 </r>
        <r>  0.1973  0.0003  0.0335  0.0170  0.0000  0.0000  0.0000  0.0000  0.0000 </r>
       </set>
       <set comment="band 3">
        <r>  0.0030  0.0681  0.0285  0.0677  0.0000  0.0000  0.0000  0.0000  0.0000 </r>
        <r>  0.0030  0.0681  0.0285  0.0677  0.0000  0.0000  0.0000  0.0000  0.0000 </r>
       </set>
       <set comment="band 4">
        <r>  0.0000  0.0786  0.0371  0.0546  0.0000  0.0000  0.0000  0.0000  0.0000 </r>
        <r>  0.0000  0.0786  0.0371  0.0546  0.0000  0.0000  0.0000  0.0000  0.0000 </r>
       </set>
       <set comment="band 5">
        <r>  0.0290  0.0426  0.0220  0.0208  0.0000  0.0000  0.0000  0.0000  0.0000 </r>
        <r>  0.0290  0.0426  0.0220  0.0208  0.0000  0.0000  0.0000  0.0000  0.0000 </r>
       </set>
       <set comment="band 6">
        <r>  0.0262  0.0468  0.0146  0.0140  0.0000  0.0000  0.0000  0.0000  0.0000 </r>
        <r>  0.0262  0.0468  0.0146  0.0140  0.0000  0.0000  0.0000  0.0000  0.0000 </r>
       </set>
       <set comment="band 7">
        <r>  0.0404  0.0361  0.0315  0.0355  0.0000  0.0000  0.0000  0.0000  0.0000 </r>
        <r>  0.0404  0.0361  0.0315  0.0355  0.0000  0.0000  0.0000  0.0000  0.0000 </r>
       </set>
       <set comment="band 8">
        <r>  0.0273  0.0415  0.0385  0.0284  0.0000  0.0000  0.0000  0.0000  0.0000 </r>
        <r>  0.0273  0.0415  0.0385  0.0284  0.0000  0.0000  0.0000  0.0000  0.0000 </r>
       </set>
      </set>
      <set comment="kpoint 506">
       <set comment="band 1">
        <r>  0.2060  0.0002  0.0261  0.0137  0.0000  0.0000  0.0000  0.0000  0.0000 </r>
        <r>  0.2060  0.0002  0.0261  0.0137  0.0000  0.0000  0.0000  0.0000  0.0000 </r>
       </set>
       <set comment="band 2">
        <r>  0.1988  0.0003  0.0304  0.0175  0.0000  0.0000  0.0000  0.0000  0.0000 </r>
        <r>  0.1988  0.0003  0.0304  0.0175  0.0000  0.0000  0.0000  0.0000  0.0000 </r>
       </set>
       <set comment="band 3">
        <r>  0.0007  0.0683  0.0392  0.0557  0.0000  0.0000  0.0000  0.0000  0.0000 </r>
        <r>  0.0007  0.0683  0.0392  0.0557  0.0000  0.0000  0.0000  0.0000  0.0000 </r>
       </set>
       <set comment="band 4">
        <r>  0.0007  0.0762  0.0347  0.0579  0.0000  0.0000  0.0000  0.0000  0.0000 </r>
        <r>  0.0007  0.0762  0.0347  0.0579  0.0000  0.0000  0.0000  0.0000  0.0000 </r>
       </set>
       <set comment="band 5">
        <r>  0.0262  0.0485  0.0179  0.0154  0.0000  0.0000  0.0000  0.0000  0.0000 </r>
        <r>  0.0262  0.0485  0.0179  0.0154  0.0000  0.0000  0.0000  0.0000  0.0000 </r>
       </set>
       <set comment="band 6">
        <r>  0.0178  0.0585  0.0110  0.0149  0.0000  0.0000  0.0000  0.0000  0.0000 </r>
        <r>  0.0178  0.0585  0.0110  0.0149  0.0000  0.0000  0.0000  0.0000  0.0000 </r>
       </set>
       <set comment="band 7">
        <r>  0.0443  0.0272  0.0371  0.0380  0.0000  0.0000  0.0000  0.0000  0.0000 </r>
        <r>  0.0443  0.0272  0.0371  0.0380  0.0000  0.0000  0.0000  0.0000  0.0000 </r>
       </set>
       <set comment="band 8">
        <r>  0.0350  0.0339  0.0391  0.0316  0.0000  0.0000  0.0000  0.0000  0.0000 </r>
        <r>  0.0350  0.0339  0.0391  0.0316  0.0000  0.0000  0.0000  0.0000  0.0000 </r>
       </set>
      </set>
      <set comment="kpoint 507">
       <set comment="band 1">
        <r>  0.2083  0.0005  0.0198  0.0181  0.0000  0.0000  0.0000  0.0000  0.0000 </r>
        <r>  0.2083  0.0005  0.0198  0.0181  0.0000  0.0000  0.0000  0.0000  0.0000 </r>
       </set>
       <set comment="band 2">
        <r>  0.1966  0.0007  0.0305  0.0187  0.0000  0.0000  0.0000  0.0000  0.0000 </r>
        <r>  0.1966  0.0007  0.0305  0.0187  0.0000  0.0000  0.0000  0.0000  0.0000 </r>
       </set>
       <set comment="band 3">
        <r>  0.0002  0.0660  0.0499  0.0458  0.0000  0.0000  0.0000  0.0000  0.0000 </r>
        <r>  0.0002  0.0660  0.0499  0.0458  0.0000  0.0000  0.0000  0.0000  0.0000 </r>
       </set>
       <set comment="band 4">
        <r>  0.0012  0.0772  0.0332  0.0594  0.0000  0.0000  0.0000  0.0000  0.0000 </r>
        <r>  0.0012  0.0772  0.0332  0.0594  0.0000  0.0000  0.0000  0.0000  0.0000 </r>
       </set>
       <set comment="band 5">
        <r>  0.0232  0.0537  0.0167  0.0124  0.0000  0.0000  0.0000  0.0000  0.0000 </r>
        <r>  0.0232  0.0537  0.0167  0.0124  0.0000  0.0000  0.0000  0.0000  0.0000 </r>
       </set>
       <set comment="band 6">
        <r>  0.0009  0.0838  0.0001  0.0013  0.0000  0.0000  0.0000  0.0000  0.0000 </r>
        <r>  0.0009  0.0838  0.0001  0.0013  0.0000  0.0000  0.0000  0.0000  0.0000 </r>
       </set>
       <set comment="band 7">
        <r>  0.0447  0.0281  0.0362  0.0296  0.0000  0.0000  0.0000  0.0000  0.0000 </r>
        <r>  0.0447  0.0281  0.0362  0.0296  0.0000  0.0000  0.0000  0.0000  0.0000 </r>
       </set>
       <set comment="band 8">
        <r>  0.0544  0.0018  0.0511  0.0582  0.0000  0.0000  0.0000  0.0000  0.0000 </r>
        <r>  0.0544  0.0018  0.0511  0.0582  0.0000  0.0000  0.0000  0.0000  0.0000 </r>
       </set>
      </set>
      <set comment="kpoint 508">
       <set comment="band 1">
        <r>  0.1670  0.0000  0.0370  0.0148  0.0000  0.0000  0.0000  0.0000  0.0000 </r>
        <r>  0.2370  0.0000  0.0261  0.0104  0.0000  0.0000  0.0000  0.0000  0.0000 </r>
       </set>
       <set comment="band 2">
        <r>  0.2370  0.0000  0.0261  0.0104  0.0000  0.0000  0.0000  0.0000  0.0000 </r>
        <r>  0.1670  0.0000  0.0370  0.0148  0.0000  0.0000  0.0000  0.0000  0.0000 </r>
       </set>
       <set comment="band 3">
        <r>  0.0010  0.0801  0.0290  0.0560  0.0000  0.0000  0.0000  0.0000  0.0000 </r>
        <r>  0.0009  0.0667  0.0349  0.0673  0.0000  0.0000  0.0000  0.0000  0.0000 </r>
       </set>
       <set comment="band 4">
        <r>  0.0009  0.0667  0.0349  0.0673  0.0000  0.0000  0.0000  0.0000  0.0000 </r>
        <r>  0.0010  0.0801  0.0290  0.0560  0.0000  0.0000  0.0000  0.0000  0.0000 </r>
       </set>
       <set comment="band 5">
        <r>  0.0330  0.0518  0.0151  0.0147  0.0000  0.0000  0.0000  0.0000  0.0000 </r>
        <r>  0.0236  0.0370  0.0212  0.0206  0.0000  0.0000  0.0000  0.0000  0.0000 </r>
       </set>
       <set comment="band 6">
        <r>  0.0236  0.0370  0.0212  0.0206  0.0000  0.0000  0.0000  0.0000  0.0000 </r>
        <r>  0.0330  0.0518  0.0151  0.0147  0.0000  0.0000  0.0000  0.0000  0.0000 </r>
       </set>
       <set comment="band 7">
        <r>  0.0316  0.0377  0.0365  0.0330  0.0000  0.0000  0.0000  0.0000  0.0000 </r>
        <r>  0.0351  0.0418  0.0329  0.0297  0.0000  0.0000  0.0000  0.0000  0.0000 </r>
       </set>
       <set comment="band 8">
        <r>  0.0351  0.0418  0.0329  0.0297  0.0000  0.0000  0.0000  0.0000  0.0000 </r>
        <r>  0.0316  0.0377  0.0365  0.0330  0.0000  0.0000  0.0000  0.0000  0.0000 </r>
       </set>
      </set>
      <set comment="kpoint 509">
       <set comment="band 1">
        <r>  0.2072  0.0005  0.0238  0.0140  0.0000  0.0000  0.0000  0.0000  0.0000 </r>
        <r>  0.2072  0.0005  0.0238  0.0140  0.0000  0.0000  0.0000  0.0000  0.0000 </r>
       </set>
       <set comment="band 2">
        <r>  0.1976  0.0005  0.0259  0.0238  0.0000  0.0000  0.0000  0.0000  0.0000 </r>
        <r>  0.1976  0.0005  0.0259  0.0238  0.0000  0.0000  0.0000  0.0000  0.0000 </r>
       </set>
       <set comment="band 3">
        <r>  0.0014  0.0662  0.0369  0.0590  0.0000  0.0000  0.0000  0.0000  0.0000 </r>
        <r>  0.0014  0.0662  0.0369  0.0590  0.0000  0.0000  0.0000  0.0000  0.0000 </r>
       </set>
       <set comment="band 4">
        <r>  0.0002  0.0769  0.0483  0.0437  0.0000  0.0000  0.0000  0.0000  0.0000 </r>
        <r>  0.0002  0.0769  0.0483  0.0437  0.0000  0.0000  0.0000  0.0000  0.0000 </r>
       </set>
       <set comment="band 5">
        <r>  0.0010  0.0810  0.0004  0.0004  0.0000  0.0000  0.0000  0.0000  0.0000 </r>
        <r>  0.0010  0.0810  0.0004  0.0004  0.0000  0.0000  0.0000  0.0000  0.0000 </r>
       </set>
       <set comment="band 6">
        <r>  0.0188  0.0579  0.0151  0.0175  0.0000  0.0000  0.0000  0.0000  0.0000 </r>
        <r>  0.0188  0.0579  0.0151  0.0175  0.0000  0.0000  0.0000  0.0000  0.0000 </r>
       </set>
       <set comment="band 7">
        <r>  0.0663  0.0017  0.0439  0.0508  0.0000  0.0000  0.0000  0.0000  0.0000 </r>
        <r>  0.0663  0.0017  0.0439  0.0508  0.0000  0.0000  0.0000  0.0000  0.0000 </r>
       </set>
       <set comment="band 8">
        <r>  0.0370  0.0269  0.0451  0.0326  0.0000  0.0000  0.0000  0.0000  0.0000 </r>
        <r>  0.0370  0.0269  0.0451  0.0326  0.0000  0.0000  0.0000  0.0000  0.0000 </r>
       </set>
      </set>
      <set comment="kpoint 510">
       <set comment="band 1">
        <r>  0.2070  0.0002  0.0197  0.0197  0.0000  0.0000  0.0000  0.0000  0.0000 </r>
        <r>  0.2070  0.0002  0.0197  0.0197  0.0000  0.0000  0.0000  0.0000  0.0000 </r>
       </set>
       <set comment="band 2">
        <r>  0.1992  0.0004  0.0239  0.0239  0.0000  0.0000  0.0000  0.0000  0.0000 </r>
        <r>  0.1992  0.0004  0.0239  0.0239  0.0000  0.0000  0.0000  0.0000  0.0000 </r>
       </set>
       <set comment="band 3">
        <r>  0.0005  0.0674  0.0475  0.0475  0.0000  0.0000  0.0000  0.0000  0.0000 </r>
        <r>  0.0005  0.0674  0.0475  0.0475  0.0000  0.0000  0.0000  0.0000  0.0000 </r>
       </set>
       <set comment="band 4">
        <r>  0.0002  0.0753  0.0462  0.0462  0.0000  0.0000  0.0000  0.0000  0.0000 </r>
        <r>  0.0002  0.0753  0.0462  0.0462  0.0000  0.0000  0.0000  0.0000  0.0000 </r>
       </set>
       <set comment="band 5">
        <r>  0.0029  0.0794  0.0026  0.0026  0.0000  0.0000  0.0000  0.0000  0.0000 </r>
        <r>  0.0029  0.0794  0.0026  0.0026  0.0000  0.0000  0.0000  0.0000  0.0000 </r>
       </set>
       <set comment="band 6">
        <r>  0.0147  0.0670  0.0108  0.0108  0.0000  0.0000  0.0000  0.0000  0.0000 </r>
        <r>  0.0147  0.0670  0.0108  0.0108  0.0000  0.0000  0.0000  0.0000  0.0000 </r>
       </set>
       <set comment="band 7">
        <r>  0.0512  0.0183  0.0380  0.0380  0.0000  0.0000  0.0000  0.0000  0.0000 </r>
        <r>  0.0512  0.0183  0.0380  0.0380  0.0000  0.0000  0.0000  0.0000  0.0000 </r>
       </set>
       <set comment="band 8">
        <r>  0.0546  0.0038  0.0513  0.0513  0.0000  0.0000  0.0000  0.0000  0.0000 </r>
        <r>  0.0546  0.0038  0.0513  0.0513  0.0000  0.0000  0.0000  0.0000  0.0000 </r>
       </set>
      </set>
      <set comment="kpoint 511">
       <set comment="band 1">
        <r>  0.1838  0.0000  0.0276  0.0204  0.0000  0.0000  0.0000  0.0000  0.0000 </r>
        <r>  0.2232  0.0000  0.0227  0.0168  0.0000  0.0000  0.0000  0.0000  0.0000 </r>
       </set>
       <set comment="band 2">
        <r>  0.2232  0.0000  0.0227  0.0168  0.0000  0.0000  0.0000  0.0000  0.0000 </r>
        <r>  0.1838  0.0000  0.0276  0.0204  0.0000  0.0000  0.0000  0.0000  0.0000 </r>
       </set>
       <set comment="band 3">
        <r>  0.0001  0.0770  0.0386  0.0479  0.0000  0.0000  0.0000  0.0000  0.0000 </r>
        <r>  0.0001  0.0663  0.0448  0.0557  0.0000  0.0000  0.0000  0.0000  0.0000 </r>
       </set>
       <set comment="band 4">
        <r>  0.0001  0.0663  0.0448  0.0557  0.0000  0.0000  0.0000  0.0000  0.0000 </r>
        <r>  0.0001  0.0770  0.0386  0.0479  0.0000  0.0000  0.0000  0.0000  0.0000 </r>
       </set>
       <set comment="band 5">
        <r>  0.0149  0.0801  0.0065  0.0080  0.0000  0.0000  0.0000  0.0000  0.0000 </r>
        <r>  0.0101  0.0543  0.0095  0.0119  0.0000  0.0000  0.0000  0.0000  0.0000 </r>
       </set>
       <set comment="band 6">
        <r>  0.0101  0.0543  0.0095  0.0119  0.0000  0.0000  0.0000  0.0000  0.0000 </r>
        <r>  0.0149  0.0801  0.0065  0.0080  0.0000  0.0000  0.0000  0.0000  0.0000 </r>
       </set>
       <set comment="band 7">
        <r>  0.0475  0.0168  0.0454  0.0420  0.0000  0.0000  0.0000  0.0000  0.0000 </r>
        <r>  0.0510  0.0180  0.0423  0.0391  0.0000  0.0000  0.0000  0.0000  0.0000 </r>
       </set>
       <set comment="band 8">
        <r>  0.0510  0.0180  0.0423  0.0391  0.0000  0.0000  0.0000  0.0000  0.0000 </r>
        <r>  0.0475  0.0168  0.0454  0.0420  0.0000  0.0000  0.0000  0.0000  0.0000 </r>
       </set>
      </set>
     </set>
    </set>
   </array>
  </projected>
 </calculation>
 <structure name="finalpos" >
  <crystal>
   <varray name="basis" >
    <v>       0.00000000       2.72007468       2.72007468 </v>
    <v>       2.72007468       0.00000000       2.72007468 </v>
    <v>       2.72007468       2.72007468       0.00000000 </v>
   </varray>
   <i name="volume">     40.25061110 </i>
   <varray name="rec_basis" >
    <v>      -0.18381848       0.18381848       0.18381848 </v>
    <v>       0.18381848      -0.18381848       0.18381848 </v>
    <v>       0.18381848       0.18381848      -0.18381848 </v>
   </varray>
  </crystal>
  <varray name="positions" >
   <v>       0.87500000       0.87500000       0.87500000 </v>
   <v>       0.12500000       0.12500000       0.12500000 </v>
  </varray>
 </structure>
</modeling>
