Si                                      
           1
     0.000000    2.720075    2.720075
     2.720075    0.000000    2.720075
     2.720075    2.720075    0.000000
   Si
     2
Direct configuration=     1
   0.87500000  0.87500000  0.87500000
   0.12500000  0.12500000  0.12500000
