       N       E                     dE             d eps       ncg     rms          rms(c)
DAV:   1     0.277174978008E+01    0.27717E+01   -0.43109E+03  8176   0.117E+03
DAV:   2    -0.184237994561E+02   -0.21196E+02   -0.20911E+02 11936   0.931E+01
DAV:   3    -0.187161270510E+02   -0.29233E+00   -0.29233E+00 11000   0.136E+01
DAV:   4    -0.187172812048E+02   -0.11542E-02   -0.11542E-02 12672   0.929E-01
DAV:   5    -0.187172833402E+02   -0.21354E-05   -0.21358E-05 11176   0.298E-02    0.605E+00
DAV:   6    -0.174630717828E+02    0.12542E+01   -0.13485E-01 10536   0.301E+00    0.409E+00
DAV:   7    -0.175443133117E+02   -0.81242E-01   -0.36995E-02  9344   0.167E+00    0.313E+00
DAV:   8    -0.175503335365E+02   -0.60202E-02   -0.72829E-02 11176   0.189E+00    0.186E-01
DAV:   9    -0.175498318422E+02    0.50169E-03   -0.19010E-03 10568   0.311E-01    0.229E-01
DAV:  10    -0.175498912134E+02   -0.59371E-04   -0.71891E-05 11992   0.963E-02    0.883E-02
DAV:  11    -0.175499200633E+02   -0.28850E-04   -0.23755E-05 10400   0.556E-02    0.140E-02
DAV:  12    -0.175499184961E+02    0.15671E-05   -0.68779E-07 13512   0.885E-03    0.168E-02
DAV:  13    -0.175499228027E+02   -0.43065E-05   -0.11340E-07  8032   0.360E-03    0.369E-03
DAV:  14    -0.175499226191E+02    0.18354E-06   -0.21429E-08  5752   0.162E-03    0.252E-04
DAV:  15    -0.175499226366E+02   -0.17442E-07   -0.11242E-09  5032   0.365E-04
   1 F= -.17549923E+02 E0= -.17549923E+02  d E =0.000000E+00
