       N       E                     dE             d eps       ncg     rms          rms(c)
DAV:   1     0.275009016414E+01    0.27501E+01   -0.41993E+03  7280   0.116E+03
DAV:   2    -0.182990932834E+02   -0.21049E+02   -0.20819E+02 10848   0.913E+01
DAV:   3    -0.186101255532E+02   -0.31103E+00   -0.31103E+00 10000   0.136E+01
DAV:   4    -0.186114972443E+02   -0.13717E-02   -0.13717E-02 11072   0.973E-01
DAV:   5    -0.186115000389E+02   -0.27946E-05   -0.27951E-05 10000   0.329E-02    0.531E+00
DAV:   6    -0.173450580199E+02    0.12664E+01   -0.11196E-01  8104   0.279E+00    0.353E+00
DAV:   7    -0.174205338469E+02   -0.75476E-01   -0.29118E-02  7896   0.153E+00    0.274E+00
DAV:   8    -0.174301522491E+02   -0.96184E-02   -0.59506E-02  9832   0.171E+00    0.173E-01
DAV:   9    -0.174298880281E+02    0.26422E-03   -0.14024E-03  9536   0.274E-01    0.197E-01
DAV:  10    -0.174299670781E+02   -0.79050E-04   -0.77057E-05 10104   0.925E-02    0.719E-02
DAV:  11    -0.174299757402E+02   -0.86620E-05   -0.17595E-05  9840   0.419E-02    0.657E-03
DAV:  12    -0.174299749709E+02    0.76925E-06   -0.42594E-07 11264   0.566E-03    0.486E-03
DAV:  13    -0.174299780556E+02   -0.30847E-05   -0.33253E-07  8920   0.521E-03    0.173E-03
DAV:  14    -0.174299773552E+02    0.70037E-06   -0.69104E-08  5680   0.272E-03    0.341E-04
DAV:  15    -0.174299773394E+02    0.15777E-07   -0.22008E-09  4096   0.494E-04
   1 F= -.17429977E+02 E0= -.17429977E+02  d E =0.000000E+00
