       N       E                     dE             d eps       ncg     rms          rms(c)
DAV:   1     0.295017552419E+01    0.29502E+01   -0.44026E+03  8176   0.119E+03
DAV:   2    -0.183800468465E+02   -0.21330E+02   -0.21118E+02 11920   0.954E+01
DAV:   3    -0.186680043710E+02   -0.28796E+00   -0.28796E+00 10856   0.136E+01
DAV:   4    -0.186692529923E+02   -0.12486E-02   -0.12486E-02 12632   0.934E-01
DAV:   5    -0.186692551019E+02   -0.21095E-05   -0.21085E-05 11160   0.290E-02    0.646E+00
DAV:   6    -0.174140362870E+02    0.12552E+01   -0.15017E-01 11248   0.312E+00    0.440E+00
DAV:   7    -0.174988174991E+02   -0.84781E-01   -0.41366E-02  9312   0.174E+00    0.341E+00
DAV:   8    -0.175030274954E+02   -0.42100E-02   -0.83880E-02 10968   0.204E+00    0.192E-01
DAV:   9    -0.175023245142E+02    0.70298E-03   -0.22452E-03 10584   0.337E-01    0.244E-01
DAV:  10    -0.175023951145E+02   -0.70600E-04   -0.74533E-05 11960   0.994E-02    0.967E-02
DAV:  11    -0.175024277729E+02   -0.32658E-04   -0.30753E-05 10384   0.649E-02    0.207E-02
DAV:  12    -0.175024261546E+02    0.16183E-05   -0.81127E-07 13368   0.989E-03    0.215E-02
DAV:  13    -0.175024305054E+02   -0.43508E-05   -0.10588E-07  8744   0.367E-03    0.463E-03
DAV:  14    -0.175024306916E+02   -0.18620E-06   -0.76768E-09  5760   0.965E-04    0.166E-04
DAV:  15    -0.175024306923E+02   -0.65984E-09   -0.55950E-10  5304   0.250E-04
   1 F= -.17502431E+02 E0= -.17502431E+02  d E =0.000000E+00
