       N       E                     dE             d eps       ncg     rms          rms(c)
DAV:   1     0.282660744567E+01    0.28266E+01   -0.40452E+03  6608   0.114E+03
DAV:   2    -0.179768527850E+02   -0.20803E+02   -0.20481E+02  9688   0.884E+01
DAV:   3    -0.183097841633E+02   -0.33293E+00   -0.33293E+00  9088   0.139E+01
DAV:   4    -0.183113756050E+02   -0.15914E-02   -0.15914E-02  9952   0.104E+00
DAV:   5    -0.183113787112E+02   -0.31062E-05   -0.31061E-05  9352   0.372E-02    0.468E+00
DAV:   6    -0.170227711434E+02    0.12886E+01   -0.98954E-02  6976   0.264E+00    0.307E+00
DAV:   7    -0.170889927664E+02   -0.66222E-01   -0.24266E-02  6888   0.144E+00    0.231E+00
DAV:   8    -0.171003564234E+02   -0.11364E-01   -0.42062E-02  8512   0.150E+00    0.152E-01
DAV:   9    -0.171003581354E+02   -0.17119E-05   -0.65108E-04  8880   0.210E-01    0.145E-01
DAV:  10    -0.171004262485E+02   -0.68113E-04   -0.12105E-04  7976   0.100E-01    0.337E-02
DAV:  11    -0.171004404254E+02   -0.14177E-04   -0.94056E-06  9768   0.293E-02    0.108E-02
DAV:  12    -0.171004380778E+02    0.23476E-05   -0.15356E-07  9000   0.430E-03    0.375E-03
DAV:  13    -0.171004407652E+02   -0.26874E-05   -0.58928E-07  8424   0.569E-03    0.198E-03
DAV:  14    -0.171004398668E+02    0.89837E-06   -0.88053E-08  3712   0.272E-03    0.338E-04
DAV:  15    -0.171004399032E+02   -0.36380E-07   -0.43651E-09  3464   0.654E-04
   1 F= -.17100440E+02 E0= -.17100440E+02  d E =0.000000E+00
