       N       E                     dE             d eps       ncg     rms          rms(c)
DAV:   1     0.276926184354E+01    0.27693E+01   -0.42775E+03  8176   0.117E+03
DAV:   2    -0.184411242934E+02   -0.21210E+02   -0.20906E+02 12080   0.936E+01
DAV:   3    -0.187168635420E+02   -0.27574E+00   -0.27574E+00 11088   0.134E+01
DAV:   4    -0.187179324946E+02   -0.10690E-02   -0.10690E-02 12720   0.886E-01
DAV:   5    -0.187179339775E+02   -0.14828E-05   -0.14824E-05 11288   0.266E-02    0.601E+00
DAV:   6    -0.174636104125E+02    0.12543E+01   -0.13343E-01 10288   0.300E+00    0.406E+00
DAV:   7    -0.175444779717E+02   -0.80868E-01   -0.36685E-02  9336   0.167E+00    0.311E+00
DAV:   8    -0.175506623936E+02   -0.61844E-02   -0.71760E-02 11104   0.187E+00    0.185E-01
DAV:   9    -0.175501807323E+02    0.48166E-03   -0.18685E-03 10456   0.309E-01    0.227E-01
DAV:  10    -0.175502390641E+02   -0.58332E-04   -0.71983E-05 11952   0.961E-02    0.876E-02
DAV:  11    -0.175502674921E+02   -0.28428E-04   -0.23162E-05 10400   0.547E-02    0.133E-02
DAV:  12    -0.175502658715E+02    0.16205E-05   -0.68803E-07 13480   0.879E-03    0.163E-02
DAV:  13    -0.175502701479E+02   -0.42763E-05   -0.11192E-07  7824   0.356E-03    0.362E-03
DAV:  14    -0.175502699457E+02    0.20217E-06   -0.24065E-08  5728   0.172E-03    0.260E-04
DAV:  15    -0.175502699698E+02   -0.24113E-07   -0.12316E-09  5104   0.383E-04
   1 F= -.17550270E+02 E0= -.17550270E+02  d E =0.000000E+00
