       N       E                     dE             d eps       ncg     rms          rms(c)
DAV:   1     0.344262081402E+01    0.34426E+01   -0.42790E+03  7280   0.117E+03
DAV:   2    -0.183930719413E+02   -0.21836E+02   -0.21522E+02 10696   0.936E+01
DAV:   3    -0.187143590043E+02   -0.32129E+00   -0.32129E+00  9864   0.139E+01
DAV:   4    -0.187157394310E+02   -0.13804E-02   -0.13804E-02 11160   0.972E-01
DAV:   5    -0.187157426590E+02   -0.32280E-05   -0.32280E-05  9960   0.324E-02    0.589E+00
DAV:   6    -0.174608613276E+02    0.12549E+01   -0.12945E-01  9032   0.297E+00    0.397E+00
DAV:   7    -0.175405923097E+02   -0.79731E-01   -0.35402E-02  8344   0.165E+00    0.303E+00
DAV:   8    -0.175472424643E+02   -0.66502E-02   -0.68655E-02  9792   0.183E+00    0.184E-01
DAV:   9    -0.175468181858E+02    0.42428E-03   -0.17714E-03  9448   0.301E-01    0.222E-01
DAV:  10    -0.175468736275E+02   -0.55442E-04   -0.71288E-05 10624   0.950E-02    0.847E-02
DAV:  11    -0.175469006348E+02   -0.27007E-04   -0.21509E-05  9344   0.522E-02    0.117E-02
DAV:  12    -0.175468988827E+02    0.17521E-05   -0.65995E-07 12064   0.841E-03    0.147E-02
DAV:  13    -0.175469031494E+02   -0.42668E-05   -0.12216E-07  7224   0.365E-03    0.289E-03
DAV:  14    -0.175469027721E+02    0.37732E-06   -0.30830E-08  5144   0.192E-03    0.279E-04
DAV:  15    -0.175469028028E+02   -0.30650E-07   -0.14629E-09  4448   0.421E-04
   1 F= -.17546903E+02 E0= -.17546903E+02  d E =0.000000E+00
