       N       E                     dE             d eps       ncg     rms          rms(c)
DAV:   1     0.276812739760E+01    0.27681E+01   -0.42841E+03  7280   0.117E+03
DAV:   2    -0.184251630053E+02   -0.21193E+02   -0.20937E+02 10608   0.929E+01
DAV:   3    -0.187158712047E+02   -0.29071E+00   -0.29071E+00  9744   0.135E+01
DAV:   4    -0.187171485133E+02   -0.12773E-02   -0.12773E-02 11184   0.960E-01
DAV:   5    -0.187171509434E+02   -0.24301E-05   -0.24301E-05 10088   0.310E-02    0.593E+00
DAV:   6    -0.174624909901E+02    0.12547E+01   -0.13075E-01  9096   0.298E+00    0.400E+00
DAV:   7    -0.175426055192E+02   -0.80115E-01   -0.35832E-02  8408   0.165E+00    0.305E+00
DAV:   8    -0.175491047941E+02   -0.64993E-02   -0.69701E-02  9848   0.185E+00    0.184E-01
DAV:   9    -0.175486607410E+02    0.44405E-03   -0.18038E-03  9392   0.304E-01    0.223E-01
DAV:  10    -0.175487171735E+02   -0.56432E-04   -0.71493E-05 10696   0.954E-02    0.857E-02
DAV:  11    -0.175487447355E+02   -0.27562E-04   -0.22082E-05  9424   0.531E-02    0.122E-02
DAV:  12    -0.175487430318E+02    0.17037E-05   -0.66999E-07 12096   0.855E-03    0.152E-02
DAV:  13    -0.175487472991E+02   -0.42674E-05   -0.11802E-07  6984   0.362E-03    0.316E-03
DAV:  14    -0.175487469868E+02    0.31231E-06   -0.28284E-08  5128   0.185E-03    0.270E-04
DAV:  15    -0.175487470161E+02   -0.29283E-07   -0.13961E-09  4432   0.409E-04
   1 F= -.17548747E+02 E0= -.17548747E+02  d E =0.000000E+00
