       N       E                     dE             d eps       ncg     rms          rms(c)
DAV:   1     0.330302978506E+01    0.33030E+01   -0.44408E+03  8960   0.119E+03
DAV:   2    -0.181744330360E+02   -0.21477E+02   -0.21190E+02 13328   0.970E+01
DAV:   3    -0.184543519141E+02   -0.27992E+00   -0.27472E+00 11544   0.132E+01
DAV:   4    -0.184557146781E+02   -0.13628E-02   -0.13628E-02 14168   0.954E-01
DAV:   5    -0.184557175948E+02   -0.29167E-05   -0.29167E-05 12056   0.265E-02    0.709E+00
DAV:   6    -0.171928084236E+02    0.12629E+01   -0.17578E-01 12704   0.327E+00    0.489E+00
DAV:   7    -0.172814978482E+02   -0.88689E-01   -0.48202E-02  9896   0.183E+00    0.384E+00
DAV:   8    -0.172825603661E+02   -0.10625E-02   -0.10093E-01 11704   0.228E+00    0.200E-01
DAV:   9    -0.172815682998E+02    0.99207E-03   -0.27550E-03 11304   0.377E-01    0.259E-01
DAV:  10    -0.172816581738E+02   -0.89874E-04   -0.77825E-05 13544   0.103E-01    0.106E-01
DAV:  11    -0.172816971445E+02   -0.38971E-04   -0.44983E-05 11240   0.805E-02    0.333E-02
DAV:  12    -0.172816936381E+02    0.35064E-05   -0.12499E-06 14120   0.115E-02    0.271E-02
DAV:  13    -0.172816974006E+02   -0.37625E-05   -0.78692E-08  9192   0.348E-03    0.511E-03
DAV:  14    -0.172816981408E+02   -0.74022E-06   -0.23879E-08  5872   0.132E-03    0.528E-04
DAV:  15    -0.172816982497E+02   -0.10887E-06   -0.15567E-09  5552   0.463E-04    0.194E-04
DAV:  16    -0.172816982191E+02    0.30549E-07   -0.25634E-10  5232   0.201E-04
   1 F= -.17281698E+02 E0= -.17281698E+02  d E =0.000000E+00
