       N       E                     dE             d eps       ncg     rms          rms(c)
DAV:   1     0.282645163927E+01    0.28265E+01   -0.41232E+03  6608   0.115E+03
DAV:   2    -0.181578993348E+02   -0.20984E+02   -0.20732E+02  9760   0.901E+01
DAV:   3    -0.184794852033E+02   -0.32159E+00   -0.32159E+00  9232   0.138E+01
DAV:   4    -0.184808501785E+02   -0.13650E-02   -0.13650E-02  9856   0.977E-01
DAV:   5    -0.184808535296E+02   -0.33510E-05   -0.33512E-05  9296   0.367E-02    0.498E+00
DAV:   6    -0.172048328243E+02    0.12760E+01   -0.10425E-01  6984   0.271E+00    0.329E+00
DAV:   7    -0.172757094875E+02   -0.70877E-01   -0.26531E-02  7048   0.148E+00    0.252E+00
DAV:   8    -0.172863552164E+02   -0.10646E-01   -0.50366E-02  8728   0.160E+00    0.164E-01
DAV:   9    -0.172862397585E+02    0.11546E-03   -0.10201E-03  8776   0.243E-01    0.171E-01
DAV:  10    -0.172863110698E+02   -0.71311E-04   -0.95549E-05  8568   0.955E-02    0.547E-02
DAV:  11    -0.172863175511E+02   -0.64814E-05   -0.15595E-05  9472   0.358E-02    0.747E-03
DAV:  12    -0.172863160431E+02    0.15081E-05   -0.28174E-07  9384   0.493E-03    0.283E-03
DAV:  13    -0.172863188728E+02   -0.28297E-05   -0.55300E-07  8600   0.611E-03    0.214E-03
DAV:  14    -0.172863180121E+02    0.86066E-06   -0.58485E-08  3952   0.244E-03    0.332E-04
DAV:  15    -0.172863180129E+02   -0.81036E-09   -0.29732E-09  3616   0.580E-04
   1 F= -.17286318E+02 E0= -.17286318E+02  d E =0.000000E+00
