       N       E                     dE             d eps       ncg     rms          rms(c)
DAV:   1     0.225404744158E+01    0.22540E+01   -0.41376E+03  7280   0.115E+03
DAV:   2    -0.182969678433E+02   -0.20551E+02   -0.20318E+02 10808   0.902E+01
DAV:   3    -0.185988838571E+02   -0.30192E+00   -0.30191E+00  9928   0.134E+01
DAV:   4    -0.186001335358E+02   -0.12497E-02   -0.12497E-02 11016   0.922E-01
DAV:   5    -0.186001366218E+02   -0.30860E-05   -0.30860E-05 10328   0.338E-02    0.528E+00
DAV:   6    -0.173328614312E+02    0.12673E+01   -0.11104E-01  8040   0.278E+00    0.351E+00
DAV:   7    -0.174078677817E+02   -0.75006E-01   -0.28879E-02  8024   0.153E+00    0.271E+00
DAV:   8    -0.174176090927E+02   -0.97413E-02   -0.58554E-02  9760   0.170E+00    0.172E-01
DAV:   9    -0.174173595869E+02    0.24951E-03   -0.13682E-03  9432   0.271E-01    0.194E-01
DAV:  10    -0.174174381486E+02   -0.78562E-04   -0.78224E-05 10104   0.927E-02    0.709E-02
DAV:  11    -0.174174465840E+02   -0.84354E-05   -0.17441E-05  9848   0.414E-02    0.635E-03
DAV:  12    -0.174174457322E+02    0.85180E-06   -0.42035E-07 11264   0.559E-03    0.450E-03
DAV:  13    -0.174174487707E+02   -0.30385E-05   -0.34820E-07  8928   0.528E-03    0.177E-03
DAV:  14    -0.174174480554E+02    0.71531E-06   -0.68384E-08  5392   0.270E-03    0.336E-04
DAV:  15    -0.174174480418E+02    0.13612E-07   -0.23799E-09  4008   0.518E-04
   1 F= -.17417448E+02 E0= -.17417448E+02  d E =0.000000E+00
