       N       E                     dE             d eps       ncg     rms          rms(c)
DAV:   1     0.292856972893E+01    0.29286E+01   -0.40013E+03  5824   0.113E+03
DAV:   2    -0.177624858204E+02   -0.20691E+02   -0.20470E+02  8512   0.877E+01
DAV:   3    -0.181097198672E+02   -0.34723E+00   -0.34723E+00  8184   0.140E+01
DAV:   4    -0.181112281103E+02   -0.15082E-02   -0.15082E-02  8640   0.998E-01
DAV:   5    -0.181112322594E+02   -0.41491E-05   -0.41489E-05  8432   0.436E-02    0.440E+00
DAV:   6    -0.168074992128E+02    0.13037E+01   -0.95875E-02  6048   0.259E+00    0.286E+00
DAV:   7    -0.168690334712E+02   -0.61534E-01   -0.22464E-02  5960   0.141E+00    0.213E+00
DAV:   8    -0.168808446525E+02   -0.11811E-01   -0.34655E-02  7280   0.140E+00    0.136E-01
DAV:   9    -0.168809250504E+02   -0.80398E-04   -0.41737E-04  7960   0.184E-01    0.127E-01
DAV:  10    -0.168809960364E+02   -0.70986E-04   -0.88909E-05  6952   0.878E-02    0.251E-02
DAV:  11    -0.168810307638E+02   -0.34727E-04   -0.11647E-05  7768   0.371E-02    0.183E-02
DAV:  12    -0.168810275229E+02    0.32409E-05   -0.17160E-07  7760   0.485E-03    0.922E-03
DAV:  13    -0.168810299372E+02   -0.24142E-05   -0.26375E-07  6536   0.363E-03    0.224E-03
DAV:  14    -0.168810290953E+02    0.84190E-06   -0.27965E-07  6344   0.413E-03    0.598E-04
DAV:  15    -0.168810292319E+02   -0.13668E-06   -0.41794E-09  2944   0.621E-04    0.294E-04
DAV:  16    -0.168810291729E+02    0.59023E-07   -0.55212E-10  2920   0.262E-04
   1 F= -.16881029E+02 E0= -.16881029E+02  d E =0.000000E+00
