       N       E                     dE             d eps       ncg     rms          rms(c)
DAV:   1     0.276631816535E+01    0.27663E+01   -0.42788E+03  8176   0.117E+03
DAV:   2    -0.184234942996E+02   -0.21190E+02   -0.20941E+02 12072   0.937E+01
DAV:   3    -0.187146808974E+02   -0.29119E+00   -0.29119E+00 10912   0.134E+01
DAV:   4    -0.187159182495E+02   -0.12374E-02   -0.12374E-02 12600   0.934E-01
DAV:   5    -0.187159207300E+02   -0.24805E-05   -0.24816E-05 11296   0.301E-02    0.609E+00
DAV:   6    -0.174617792180E+02    0.12541E+01   -0.13626E-01 10576   0.302E+00    0.412E+00
DAV:   7    -0.175433914392E+02   -0.81612E-01   -0.37439E-02  9376   0.168E+00    0.316E+00
DAV:   8    -0.175492468216E+02   -0.58554E-02   -0.73880E-02 11048   0.190E+00    0.187E-01
DAV:   9    -0.175487260569E+02    0.52076E-03   -0.19355E-03 10512   0.314E-01    0.230E-01
DAV:  10    -0.175487865831E+02   -0.60526E-04   -0.72199E-05 11832   0.966E-02    0.893E-02
DAV:  11    -0.175488158694E+02   -0.29286E-04   -0.24321E-05 10360   0.565E-02    0.145E-02
DAV:  12    -0.175488143270E+02    0.15424E-05   -0.69838E-07 13448   0.897E-03    0.172E-02
DAV:  13    -0.175488186235E+02   -0.42965E-05   -0.11103E-07  7952   0.358E-03    0.392E-03
DAV:  14    -0.175488185014E+02    0.12208E-06   -0.19688E-08  5784   0.155E-03    0.241E-04
DAV:  15    -0.175488185169E+02   -0.15453E-07   -0.10463E-09  5192   0.350E-04
   1 F= -.17548819E+02 E0= -.17548819E+02  d E =0.000000E+00
