       N       E                     dE             d eps       ncg     rms          rms(c)
DAV:   1     0.269333248938E+01    0.26933E+01   -0.42138E+03  7280   0.116E+03
DAV:   2    -0.183442136489E+02   -0.21038E+02   -0.20736E+02 10776   0.918E+01
DAV:   3    -0.186493277777E+02   -0.30511E+00   -0.30511E+00  9960   0.136E+01
DAV:   4    -0.186505904172E+02   -0.12626E-02   -0.12626E-02 11096   0.941E-01
DAV:   5    -0.186505930952E+02   -0.26780E-05   -0.26783E-05 10160   0.333E-02    0.545E+00
DAV:   6    -0.173874871571E+02    0.12631E+01   -0.11559E-01  8424   0.286E+00    0.364E+00
DAV:   7    -0.174649439646E+02   -0.77457E-01   -0.30676E-02  8136   0.158E+00    0.277E+00
DAV:   8    -0.174732846570E+02   -0.83407E-02   -0.59531E-02  9984   0.171E+00    0.176E-01
DAV:   9    -0.174731637658E+02    0.12089E-03   -0.13992E-03  9504   0.276E-01    0.199E-01
DAV:  10    -0.174731603522E+02    0.34136E-05   -0.75756E-05 10160   0.934E-02    0.751E-02
DAV:  11    -0.174731925673E+02   -0.32215E-04   -0.18071E-05  9640   0.447E-02    0.713E-03
DAV:  12    -0.174731879212E+02    0.46461E-05   -0.54442E-07 11736   0.673E-03    0.786E-03
DAV:  13    -0.174731932612E+02   -0.53400E-05   -0.23198E-07  8544   0.462E-03    0.115E-03
DAV:  14    -0.174731914658E+02    0.17954E-05   -0.63589E-08  6640   0.266E-03    0.349E-04
DAV:  15    -0.174731916212E+02   -0.15545E-06   -0.14184E-09  4056   0.402E-04    0.340E-04
DAV:  16    -0.174731915563E+02    0.64933E-07   -0.29053E-10  3896   0.204E-04
   1 F= -.17473192E+02 E0= -.17473192E+02  d E =0.000000E+00
