       N       E                     dE             d eps       ncg     rms          rms(c)
DAV:   1     0.541403935898E+01    0.54140E+01   -0.46848E+03  9984   0.123E+03
DAV:   2    -0.171958007417E+02   -0.22610E+02   -0.22278E+02 14544   0.102E+02
DAV:   3    -0.174535012110E+02   -0.25770E+00   -0.25770E+00 12984   0.136E+01
DAV:   4    -0.174544762082E+02   -0.97500E-03   -0.97500E-03 15744   0.882E-01
DAV:   5    -0.174544771890E+02   -0.98085E-06   -0.98084E-06 13392   0.211E-02    0.842E+00
DAV:   6    -0.161586038430E+02    0.12959E+01   -0.24002E-01 12136   0.361E+00    0.597E+00
DAV:   7    -0.162481834507E+02   -0.89580E-01   -0.62066E-02 10872   0.203E+00    0.476E+00
DAV:   8    -0.162408876620E+02    0.72958E-02   -0.13812E-01 11872   0.276E+00    0.216E-01
DAV:   9    -0.162395324332E+02    0.13552E-02   -0.37282E-03 12824   0.463E-01    0.274E-01
DAV:  10    -0.162396531567E+02   -0.12072E-03   -0.82579E-05 14680   0.106E-01    0.131E-01
DAV:  11    -0.162397271283E+02   -0.73972E-04   -0.76538E-05 12016   0.110E-01    0.499E-02
DAV:  12    -0.162397187472E+02    0.83812E-05   -0.29716E-06 15688   0.167E-02    0.367E-02
DAV:  13    -0.162397206966E+02   -0.19495E-05   -0.10422E-07 10560   0.441E-03    0.136E-02
DAV:  14    -0.162397216918E+02   -0.99515E-06   -0.46218E-08  6360   0.170E-03    0.349E-03
DAV:  15    -0.162397220740E+02   -0.38220E-06   -0.66092E-09  5760   0.865E-04    0.412E-04
DAV:  16    -0.162397220466E+02    0.27402E-07   -0.53733E-10  5512   0.290E-04
   1 F= -.16239722E+02 E0= -.16239722E+02  d E =0.000000E+00
