       N       E                     dE             d eps       ncg     rms          rms(c)
DAV:   1     0.414288898623E+01    0.41429E+01   -0.45411E+03  9992   0.121E+03
DAV:   2    -0.176644228145E+02   -0.21807E+02   -0.21554E+02 14496   0.993E+01
DAV:   3    -0.179463484150E+02   -0.28193E+00   -0.27601E+00 13344   0.135E+01
DAV:   4    -0.179475046079E+02   -0.11562E-02   -0.11562E-02 15384   0.867E-01
DAV:   5    -0.179475067420E+02   -0.21341E-05   -0.21341E-05 13688   0.247E-02    0.788E+00
DAV:   6    -0.166675077308E+02    0.12800E+01   -0.21195E-01 13008   0.345E+00    0.553E+00
DAV:   7    -0.167576466189E+02   -0.90139E-01   -0.57119E-02 10976   0.195E+00    0.438E+00
DAV:   8    -0.167540100592E+02    0.36366E-02   -0.12257E-01 12088   0.257E+00    0.210E-01
DAV:   9    -0.167527560985E+02    0.12540E-02   -0.34055E-03 12912   0.431E-01    0.272E-01
DAV:  10    -0.167528724411E+02   -0.11634E-03   -0.80969E-05 14648   0.107E-01    0.117E-01
DAV:  11    -0.167529269343E+02   -0.54493E-04   -0.64729E-05 12424   0.989E-02    0.482E-02
DAV:  12    -0.167529198485E+02    0.70858E-05   -0.20716E-06 15400   0.134E-02    0.318E-02
DAV:  13    -0.167529224119E+02   -0.25634E-05   -0.69488E-08 10280   0.357E-03    0.998E-03
DAV:  14    -0.167529235812E+02   -0.11694E-05   -0.44029E-08  6408   0.156E-03    0.207E-03
DAV:  15    -0.167529238803E+02   -0.29906E-06   -0.36474E-09  6040   0.657E-04    0.408E-04
DAV:  16    -0.167529238671E+02    0.13193E-07   -0.37347E-10  5624   0.262E-04
   1 F= -.16752924E+02 E0= -.16752924E+02  d E =0.000000E+00
