       N       E                     dE             d eps       ncg     rms          rms(c)
DAV:   1     0.276313791943E+01    0.27631E+01   -0.43658E+03  8176   0.118E+03
DAV:   2    -0.183943654265E+02   -0.21158E+02   -0.20897E+02 11968   0.946E+01
DAV:   3    -0.186767302509E+02   -0.28236E+00   -0.28147E+00 11112   0.134E+01
DAV:   4    -0.186778653269E+02   -0.11351E-02   -0.11351E-02 12432   0.903E-01
DAV:   5    -0.186778674529E+02   -0.21260E-05   -0.21268E-05 11280   0.293E-02    0.642E+00
DAV:   6    -0.174229266811E+02    0.12549E+01   -0.14848E-01 11144   0.311E+00    0.437E+00
DAV:   7    -0.175073680265E+02   -0.84441E-01   -0.40885E-02  9400   0.173E+00    0.338E+00
DAV:   8    -0.175117795277E+02   -0.44115E-02   -0.82728E-02 11048   0.202E+00    0.191E-01
DAV:   9    -0.175110959933E+02    0.68353E-03   -0.22092E-03 10672   0.334E-01    0.242E-01
DAV:  10    -0.175111655141E+02   -0.69521E-04   -0.74074E-05 11840   0.989E-02    0.957E-02
DAV:  11    -0.175111979387E+02   -0.32425E-04   -0.30038E-05 10504   0.640E-02    0.201E-02
DAV:  12    -0.175111963674E+02    0.15713E-05   -0.79409E-07 13288   0.979E-03    0.211E-02
DAV:  13    -0.175112007381E+02   -0.43707E-05   -0.10789E-07  8952   0.368E-03    0.453E-03
DAV:  14    -0.175112008805E+02   -0.14240E-06   -0.73936E-09  5928   0.951E-04    0.173E-04
DAV:  15    -0.175112008811E+02   -0.53387E-09   -0.53993E-10  5264   0.246E-04
   1 F= -.17511201E+02 E0= -.17511201E+02  d E =0.000000E+00
