       N       E                     dE             d eps       ncg     rms          rms(c)
DAV:   1     0.327092388129E+01    0.32709E+01   -0.43931E+03  8176   0.119E+03
DAV:   2    -0.183340158804E+02   -0.21605E+02   -0.21265E+02 11984   0.961E+01
DAV:   3    -0.186262052356E+02   -0.29219E+00   -0.29219E+00 11080   0.136E+01
DAV:   4    -0.186273183093E+02   -0.11131E-02   -0.11131E-02 12464   0.895E-01
DAV:   5    -0.186273205439E+02   -0.22347E-05   -0.22337E-05 11384   0.279E-02    0.663E+00
DAV:   6    -0.173706459910E+02    0.12567E+01   -0.15695E-01 11424   0.316E+00    0.454E+00
DAV:   7    -0.174566950774E+02   -0.86049E-01   -0.43216E-02  9336   0.176E+00    0.353E+00
DAV:   8    -0.174600883351E+02   -0.33933E-02   -0.88548E-02 10824   0.210E+00    0.194E-01
DAV:   9    -0.174593013989E+02    0.78694E-03   -0.23900E-03 10424   0.348E-01    0.249E-01
DAV:  10    -0.174593771635E+02   -0.75765E-04   -0.75552E-05 12072   0.101E-01    0.997E-02
DAV:  11    -0.174594114487E+02   -0.34285E-04   -0.34434E-05 10240   0.692E-02    0.240E-02
DAV:  12    -0.174594095372E+02    0.19115E-05   -0.90380E-07 13400   0.103E-02    0.233E-02
DAV:  13    -0.174594138346E+02   -0.42974E-05   -0.10240E-07  8824   0.370E-03    0.457E-03
DAV:  14    -0.174594141504E+02   -0.31584E-06   -0.82705E-09  5760   0.957E-04    0.124E-04
DAV:  15    -0.174594141590E+02   -0.86131E-08   -0.60647E-10  5360   0.266E-04
   1 F= -.17459414E+02 E0= -.17459414E+02  d E =0.000000E+00
