       N       E                     dE             d eps       ncg     rms          rms(c)
DAV:   1     0.320751292363E+01    0.32075E+01   -0.44131E+03  8960   0.119E+03
DAV:   2    -0.182724099546E+02   -0.21480E+02   -0.21183E+02 13208   0.965E+01
DAV:   3    -0.185347651437E+02   -0.26236E+00   -0.25981E+00 11960   0.132E+01
DAV:   4    -0.185358658827E+02   -0.11007E-02   -0.11007E-02 13936   0.872E-01
DAV:   5    -0.185358677423E+02   -0.18597E-05   -0.18597E-05 12360   0.247E-02    0.690E+00
DAV:   6    -0.172758679079E+02    0.12600E+01   -0.16799E-01 12680   0.323E+00    0.475E+00
DAV:   7    -0.173636191441E+02   -0.87751E-01   -0.46147E-02 10184   0.180E+00    0.372E+00
DAV:   8    -0.173656573113E+02   -0.20382E-02   -0.95912E-02 11600   0.221E+00    0.197E-01
DAV:   9    -0.173647444539E+02    0.91286E-03   -0.26116E-03 11472   0.366E-01    0.255E-01
DAV:  10    -0.173648285495E+02   -0.84096E-04   -0.76741E-05 13400   0.102E-01    0.104E-01
DAV:  11    -0.173648655032E+02   -0.36954E-04   -0.40677E-05 11312   0.760E-02    0.297E-02
DAV:  12    -0.173648627648E+02    0.27384E-05   -0.10966E-06 14224   0.111E-02    0.257E-02
DAV:  13    -0.173648668069E+02   -0.40421E-05   -0.88840E-08  9568   0.359E-03    0.465E-03
DAV:  14    -0.173648673656E+02   -0.55872E-06   -0.16661E-08  5912   0.119E-03    0.281E-04
DAV:  15    -0.173648674257E+02   -0.60085E-07   -0.11147E-09  5656   0.393E-04
   1 F= -.17364867E+02 E0= -.17364867E+02  d E =0.000000E+00
