       N       E                     dE             d eps       ncg     rms          rms(c)
DAV:   1     0.274595666407E+01    0.27460E+01   -0.42893E+03  8176   0.117E+03
DAV:   2    -0.184365568394E+02   -0.21183E+02   -0.20967E+02 12056   0.937E+01
DAV:   3    -0.187160068523E+02   -0.27945E+00   -0.27945E+00 10840   0.133E+01
DAV:   4    -0.187172677848E+02   -0.12609E-02   -0.12609E-02 12712   0.947E-01
DAV:   5    -0.187172700851E+02   -0.23003E-05   -0.23003E-05 11224   0.296E-02    0.605E+00
DAV:   6    -0.174630571308E+02    0.12542E+01   -0.13485E-01 10392   0.301E+00    0.409E+00
DAV:   7    -0.175443034947E+02   -0.81246E-01   -0.37087E-02  9352   0.167E+00    0.313E+00
DAV:   8    -0.175503234458E+02   -0.60200E-02   -0.72833E-02 11056   0.189E+00    0.186E-01
DAV:   9    -0.175498222527E+02    0.50119E-03   -0.19034E-03 10600   0.312E-01    0.229E-01
DAV:  10    -0.175498816764E+02   -0.59424E-04   -0.71953E-05 11832   0.962E-02    0.884E-02
DAV:  11    -0.175499105118E+02   -0.28835E-04   -0.23706E-05 10488   0.556E-02    0.139E-02
DAV:  12    -0.175499089382E+02    0.15737E-05   -0.68931E-07 13480   0.886E-03    0.167E-02
DAV:  13    -0.175499132354E+02   -0.42973E-05   -0.11331E-07  8056   0.359E-03    0.371E-03
DAV:  14    -0.175499130583E+02    0.17716E-06   -0.21627E-08  5704   0.162E-03    0.249E-04
DAV:  15    -0.175499130767E+02   -0.18457E-07   -0.11316E-09  5168   0.366E-04
   1 F= -.17549913E+02 E0= -.17549913E+02  d E =0.000000E+00
