       N       E                     dE             d eps       ncg     rms          rms(c)
DAV:   1     0.287658013390E+01    0.28766E+01   -0.43129E+03  8176   0.118E+03
DAV:   2    -0.184260534688E+02   -0.21303E+02   -0.21071E+02 12184   0.942E+01
DAV:   3    -0.187061414384E+02   -0.28009E+00   -0.28009E+00 10856   0.133E+01
DAV:   4    -0.187074250816E+02   -0.12836E-02   -0.12836E-02 12632   0.935E-01
DAV:   5    -0.187074271707E+02   -0.20891E-05   -0.20888E-05 11176   0.284E-02    0.621E+00
DAV:   6    -0.174532697586E+02    0.12542E+01   -0.14067E-01 10808   0.306E+00    0.421E+00
DAV:   7    -0.175359761316E+02   -0.82706E-01   -0.38675E-02  9280   0.170E+00    0.324E+00
DAV:   8    -0.175413130316E+02   -0.53369E-02   -0.77120E-02 11040   0.195E+00    0.188E-01
DAV:   9    -0.175407332775E+02    0.57975E-03   -0.20356E-03 10488   0.322E-01    0.235E-01
DAV:  10    -0.175407969205E+02   -0.63643E-04   -0.73015E-05 11808   0.976E-02    0.919E-02
DAV:  11    -0.175408272643E+02   -0.30344E-04   -0.26187E-05 10416   0.590E-02    0.163E-02
DAV:  12    -0.175408257739E+02    0.14904E-05   -0.72188E-07 13616   0.924E-03    0.186E-02
DAV:  13    -0.175408300988E+02   -0.43249E-05   -0.10861E-07  8336   0.359E-03    0.427E-03
DAV:  14    -0.175408300853E+02    0.13567E-07   -0.14314E-08  5872   0.133E-03
   1 F= -.17540830E+02 E0= -.17540830E+02  d E =0.000000E+00
