       N       E                     dE             d eps       ncg     rms          rms(c)
DAV:   1     0.304196923637E+01    0.30420E+01   -0.43145E+03  8176   0.118E+03
DAV:   2    -0.184343563103E+02   -0.21476E+02   -0.21235E+02 11832   0.937E+01
DAV:   3    -0.187167815431E+02   -0.28243E+00   -0.28243E+00 11208   0.135E+01
DAV:   4    -0.187179359874E+02   -0.11544E-02   -0.11544E-02 12480   0.916E-01
DAV:   5    -0.187179379681E+02   -0.19807E-05   -0.19807E-05 11296   0.292E-02    0.601E+00
DAV:   6    -0.174636125377E+02    0.12543E+01   -0.13341E-01 10296   0.300E+00    0.406E+00
DAV:   7    -0.175444756944E+02   -0.80863E-01   -0.36676E-02  9496   0.167E+00    0.311E+00
DAV:   8    -0.175506626978E+02   -0.61870E-02   -0.71764E-02 10968   0.187E+00    0.185E-01
DAV:   9    -0.175501797344E+02    0.48296E-03   -0.18712E-03 10720   0.309E-01    0.227E-01
DAV:  10    -0.175502384377E+02   -0.58703E-04   -0.71723E-05 11744   0.959E-02    0.874E-02
DAV:  11    -0.175502670220E+02   -0.28584E-04   -0.23193E-05 10480   0.548E-02    0.134E-02
DAV:  12    -0.175502654229E+02    0.15992E-05   -0.68493E-07 13488   0.878E-03    0.163E-02
DAV:  13    -0.175502697116E+02   -0.42887E-05   -0.11674E-07  8136   0.363E-03    0.354E-03
DAV:  14    -0.175502694922E+02    0.21942E-06   -0.22729E-08  5784   0.166E-03    0.250E-04
DAV:  15    -0.175502695132E+02   -0.21019E-07   -0.11847E-09  5120   0.375E-04
   1 F= -.17550270E+02 E0= -.17550270E+02  d E =0.000000E+00
