       N       E                     dE             d eps       ncg     rms          rms(c)
DAV:   1     0.282411303670E+01    0.28241E+01   -0.42943E+03  7280   0.117E+03
DAV:   2    -0.184223143527E+02   -0.21246E+02   -0.20970E+02 10736   0.936E+01
DAV:   3    -0.187123683929E+02   -0.29005E+00   -0.29005E+00  9696   0.135E+01
DAV:   4    -0.187136720564E+02   -0.13037E-02   -0.13037E-02 11152   0.966E-01
DAV:   5    -0.187136741655E+02   -0.21091E-05   -0.21092E-05  9984   0.314E-02    0.585E+00
DAV:   6    -0.174585309118E+02    0.12551E+01   -0.12816E-01  8912   0.296E+00    0.394E+00
DAV:   7    -0.175378751362E+02   -0.79344E-01   -0.35056E-02  8352   0.164E+00    0.300E+00
DAV:   8    -0.175446771432E+02   -0.68020E-02   -0.67644E-02  9792   0.182E+00    0.183E-01
DAV:   9    -0.175442714398E+02    0.40570E-03   -0.17386E-03  9432   0.299E-01    0.220E-01
DAV:  10    -0.175443257708E+02   -0.54331E-04   -0.71029E-05 10560   0.947E-02    0.836E-02
DAV:  11    -0.175443522940E+02   -0.26523E-04   -0.21007E-05  9448   0.513E-02    0.113E-02
DAV:  12    -0.175443504954E+02    0.17986E-05   -0.64951E-07 11992   0.827E-03    0.142E-02
DAV:  13    -0.175443547811E+02   -0.42857E-05   -0.12910E-07  7752   0.373E-03    0.258E-03
DAV:  14    -0.175443543248E+02    0.45636E-06   -0.31906E-08  5168   0.193E-03    0.286E-04
DAV:  15    -0.175443543562E+02   -0.31455E-07   -0.14980E-09  4392   0.430E-04
   1 F= -.17544354E+02 E0= -.17544354E+02  d E =0.000000E+00
