       N       E                     dE             d eps       ncg     rms          rms(c)
DAV:   1     0.368495763997E+01    0.36850E+01   -0.44094E+03  8176   0.119E+03
DAV:   2    -0.182484902474E+02   -0.21933E+02   -0.21661E+02 11944   0.970E+01
DAV:   3    -0.185525830086E+02   -0.30409E+00   -0.30398E+00 10864   0.138E+01
DAV:   4    -0.185539410525E+02   -0.13580E-02   -0.13580E-02 12680   0.959E-01
DAV:   5    -0.185539440621E+02   -0.30096E-05   -0.30095E-05 11152   0.303E-02    0.686E+00
DAV:   6    -0.172945982101E+02    0.12593E+01   -0.16602E-01 11416   0.322E+00    0.471E+00
DAV:   7    -0.173820850667E+02   -0.87487E-01   -0.45707E-02  9248   0.180E+00    0.368E+00
DAV:   8    -0.173843656982E+02   -0.22806E-02   -0.94619E-02 10592   0.219E+00    0.197E-01
DAV:   9    -0.173834752801E+02    0.89042E-03   -0.25731E-03 10560   0.363E-01    0.255E-01
DAV:  10    -0.173835577265E+02   -0.82446E-04   -0.76480E-05 12032   0.102E-01    0.103E-01
DAV:  11    -0.173835940669E+02   -0.36340E-04   -0.39349E-05 10376   0.746E-02    0.285E-02
DAV:  12    -0.173835915133E+02    0.25535E-05   -0.10537E-06 13232   0.109E-02    0.253E-02
DAV:  13    -0.173835956298E+02   -0.41165E-05   -0.93167E-08  8688   0.364E-03    0.450E-03
DAV:  14    -0.173835961154E+02   -0.48564E-06   -0.14395E-08  5616   0.114E-03    0.220E-04
DAV:  15    -0.173835961626E+02   -0.47194E-07   -0.97588E-10  5232   0.364E-04
   1 F= -.17383596E+02 E0= -.17383596E+02  d E =0.000000E+00
