       N       E                     dE             d eps       ncg     rms          rms(c)
DAV:   1     0.307253129230E+01    0.30725E+01   -0.41418E+03  6608   0.115E+03
DAV:   2    -0.182240870156E+02   -0.21297E+02   -0.21035E+02  9784   0.908E+01
DAV:   3    -0.185366337988E+02   -0.31255E+00   -0.31255E+00  9128   0.137E+01
DAV:   4    -0.185379019426E+02   -0.12681E-02   -0.12681E-02 10064   0.945E-01
DAV:   5    -0.185379046636E+02   -0.27210E-05   -0.27212E-05  9152   0.339E-02    0.511E+00
DAV:   6    -0.172660737502E+02    0.12718E+01   -0.10701E-01  7072   0.274E+00    0.338E+00
DAV:   7    -0.173387877109E+02   -0.72714E-01   -0.27525E-02  7152   0.150E+00    0.260E+00
DAV:   8    -0.173490640699E+02   -0.10276E-01   -0.53920E-02  8848   0.164E+00    0.167E-01
DAV:   9    -0.173488914596E+02    0.17261E-03   -0.11779E-03  8624   0.256E-01    0.182E-01
DAV:  10    -0.173489658155E+02   -0.74356E-04   -0.85933E-05  8856   0.938E-02    0.625E-02
DAV:  11    -0.173489725161E+02   -0.67006E-05   -0.16638E-05  9064   0.384E-02    0.680E-03
DAV:  12    -0.173489713104E+02    0.12057E-05   -0.34341E-07  9904   0.515E-03    0.324E-03
DAV:  13    -0.173489742256E+02   -0.29152E-05   -0.46080E-07  8240   0.581E-03    0.209E-03
DAV:  14    -0.173489733998E+02    0.82583E-06   -0.62482E-08  4184   0.255E-03    0.337E-04
DAV:  15    -0.173489733947E+02    0.50680E-08   -0.29425E-09  3584   0.583E-04
   1 F= -.17348973E+02 E0= -.17348973E+02  d E =0.000000E+00
