       N       E                     dE             d eps       ncg     rms          rms(c)
DAV:   1     0.333911670381E+01    0.33391E+01   -0.43195E+03  7280   0.117E+03
DAV:   2    -0.184114000169E+02   -0.21751E+02   -0.21438E+02 10784   0.938E+01
DAV:   3    -0.187096800224E+02   -0.29828E+00   -0.29828E+00 10008   0.136E+01
DAV:   4    -0.187109125796E+02   -0.12326E-02   -0.12326E-02 11112   0.935E-01
DAV:   5    -0.187109149706E+02   -0.23909E-05   -0.23909E-05 10024   0.306E-02    0.581E+00
DAV:   6    -0.174554706618E+02    0.12554E+01   -0.12690E-01  8904   0.295E+00    0.391E+00
DAV:   7    -0.175344206622E+02   -0.78950E-01   -0.34632E-02  8288   0.163E+00    0.298E+00
DAV:   8    -0.175413704125E+02   -0.69498E-02   -0.66626E-02  9904   0.180E+00    0.183E-01
DAV:   9    -0.175409835317E+02    0.38688E-03   -0.17045E-03  9360   0.296E-01    0.218E-01
DAV:  10    -0.175410367607E+02   -0.53229E-04   -0.71164E-05 10568   0.946E-02    0.826E-02
DAV:  11    -0.175410627063E+02   -0.25946E-04   -0.20534E-05  9568   0.505E-02    0.108E-02
DAV:  12    -0.175410608398E+02    0.18664E-05   -0.64469E-07 11968   0.817E-03    0.137E-02
DAV:  13    -0.175410651189E+02   -0.42791E-05   -0.13084E-07  7808   0.374E-03    0.235E-03
DAV:  14    -0.175410646103E+02    0.50864E-06   -0.34528E-08  5200   0.201E-03    0.299E-04
DAV:  15    -0.175410646461E+02   -0.35805E-07   -0.15787E-09  4320   0.443E-04
   1 F= -.17541065E+02 E0= -.17541065E+02  d E =0.000000E+00
