       N       E                     dE             d eps       ncg     rms          rms(c)
DAV:   1     0.396541167332E+01    0.39654E+01   -0.44342E+03  8960   0.120E+03
DAV:   2    -0.180318186301E+02   -0.21997E+02   -0.21653E+02 13152   0.979E+01
DAV:   3    -0.183001606749E+02   -0.26834E+00   -0.26833E+00 11752   0.135E+01
DAV:   4    -0.183012412345E+02   -0.10806E-02   -0.10806E-02 14080   0.893E-01
DAV:   5    -0.183012430087E+02   -0.17742E-05   -0.17744E-05 12008   0.251E-02    0.738E+00
DAV:   6    -0.170328924976E+02    0.12684E+01   -0.18844E-01 12528   0.333E+00    0.512E+00
DAV:   7    -0.171226236696E+02   -0.89731E-01   -0.51454E-02  9880   0.187E+00    0.404E+00
DAV:   8    -0.171220689113E+02    0.55476E-03   -0.10882E-01 11296   0.238E+00    0.204E-01
DAV:   9    -0.171209650315E+02    0.11039E-02   -0.29935E-03 11344   0.397E-01    0.264E-01
DAV:  10    -0.171210645463E+02   -0.99515E-04   -0.79050E-05 13512   0.105E-01    0.110E-01
DAV:  11    -0.171211079522E+02   -0.43406E-04   -0.52262E-05 11248   0.876E-02    0.392E-02
DAV:  12    -0.171211030097E+02    0.49424E-05   -0.15484E-06 14064   0.123E-02    0.290E-02
DAV:  13    -0.171211062884E+02   -0.32787E-05   -0.66290E-08  9024   0.336E-03    0.666E-03
DAV:  14    -0.171211072912E+02   -0.10028E-05   -0.33702E-08  5656   0.143E-03    0.111E-03
DAV:  15    -0.171211074911E+02   -0.19995E-06   -0.23483E-09  5536   0.545E-04    0.323E-04
DAV:  16    -0.171211074800E+02    0.11115E-07   -0.29438E-10  5152   0.226E-04
   1 F= -.17121107E+02 E0= -.17121107E+02  d E =0.000000E+00
