       N       E                     dE             d eps       ncg     rms          rms(c)
DAV:   1     0.295675946509E+01    0.29568E+01   -0.43121E+03  8176   0.118E+03
DAV:   2    -0.184204526943E+02   -0.21377E+02   -0.21125E+02 11832   0.942E+01
DAV:   3    -0.187125696709E+02   -0.29212E+00   -0.29212E+00 10952   0.135E+01
DAV:   4    -0.187138307587E+02   -0.12611E-02   -0.12611E-02 12544   0.941E-01
DAV:   5    -0.187138330995E+02   -0.23408E-05   -0.23418E-05 11216   0.295E-02    0.613E+00
DAV:   6    -0.174597231967E+02    0.12541E+01   -0.13770E-01 10688   0.304E+00    0.415E+00
DAV:   7    -0.175417051510E+02   -0.81982E-01   -0.37862E-02  9304   0.169E+00    0.319E+00
DAV:   8    -0.175473911006E+02   -0.56859E-02   -0.74960E-02 11096   0.192E+00    0.187E-01
DAV:   9    -0.175468503716E+02    0.54073E-03   -0.19689E-03 10480   0.316E-01    0.232E-01
DAV:  10    -0.175469119285E+02   -0.61557E-04   -0.72492E-05 11888   0.969E-02    0.902E-02
DAV:  11    -0.175469415913E+02   -0.29663E-04   -0.24937E-05 10376   0.573E-02    0.151E-02
DAV:  12    -0.175469400785E+02    0.15127E-05   -0.70482E-07 13576   0.906E-03    0.177E-02
DAV:  13    -0.175469443935E+02   -0.43149E-05   -0.11099E-07  8088   0.360E-03    0.401E-03
DAV:  14    -0.175469443014E+02    0.92048E-07   -0.17487E-08  5784   0.146E-03
   1 F= -.17546944E+02 E0= -.17546944E+02  d E =0.000000E+00
