       N       E                     dE             d eps       ncg     rms          rms(c)
DAV:   1     0.235274465010E+01    0.23527E+01   -0.42053E+03  7280   0.116E+03
DAV:   2    -0.183826639833E+02   -0.20735E+02   -0.20405E+02 10672   0.914E+01
DAV:   3    -0.186866458178E+02   -0.30398E+00   -0.30398E+00  9960   0.135E+01
DAV:   4    -0.186879753589E+02   -0.13295E-02   -0.13295E-02 10824   0.946E-01
DAV:   5    -0.186879782448E+02   -0.28859E-05   -0.28853E-05 10328   0.343E-02    0.563E+00
DAV:   6    -0.174278487137E+02    0.12601E+01   -0.12074E-01  8448   0.291E+00    0.377E+00
DAV:   7    -0.175073481736E+02   -0.79499E-01   -0.32436E-02  8296   0.161E+00    0.290E+00
DAV:   8    -0.175150412735E+02   -0.76931E-02   -0.64379E-02  9848   0.177E+00    0.179E-01
DAV:   9    -0.175148329138E+02    0.20836E-03   -0.15690E-03  9384   0.289E-01    0.210E-01
DAV:  10    -0.175148337207E+02   -0.80697E-06   -0.73446E-05 10448   0.938E-02    0.821E-02
DAV:  11    -0.175148696836E+02   -0.35963E-04   -0.19919E-05  9648   0.487E-02    0.804E-03
DAV:  12    -0.175148655849E+02    0.40987E-05   -0.61964E-07 11936   0.760E-03    0.106E-02
DAV:  13    -0.175148708693E+02   -0.52844E-05   -0.16777E-07  8352   0.406E-03    0.122E-03
DAV:  14    -0.175148694475E+02    0.14218E-05   -0.55685E-08  6072   0.251E-03    0.317E-04
DAV:  15    -0.175148695998E+02   -0.15238E-06   -0.16807E-09  4216   0.449E-04    0.317E-04
DAV:  16    -0.175148695306E+02    0.69277E-07   -0.27852E-10  4072   0.201E-04
   1 F= -.17514870E+02 E0= -.17514870E+02  d E =0.000000E+00
