       N       E                     dE             d eps       ncg     rms          rms(c)
DAV:   1     0.312540864523E+01    0.31254E+01   -0.43382E+03  8184   0.118E+03
DAV:   2    -0.184246721068E+02   -0.21550E+02   -0.21206E+02 12032   0.949E+01
DAV:   3    -0.187062998866E+02   -0.28163E+00   -0.28163E+00 10928   0.135E+01
DAV:   4    -0.187074791968E+02   -0.11793E-02   -0.11793E-02 12656   0.921E-01
DAV:   5    -0.187074813655E+02   -0.21688E-05   -0.21692E-05 11224   0.296E-02    0.621E+00
DAV:   6    -0.174533249910E+02    0.12542E+01   -0.14064E-01 10864   0.306E+00    0.421E+00
DAV:   7    -0.175360263810E+02   -0.82701E-01   -0.38673E-02  9336   0.170E+00    0.324E+00
DAV:   8    -0.175413658294E+02   -0.53394E-02   -0.77114E-02 10992   0.195E+00    0.188E-01
DAV:   9    -0.175407860183E+02    0.57981E-03   -0.20373E-03 10584   0.322E-01    0.235E-01
DAV:  10    -0.175408497005E+02   -0.63682E-04   -0.72983E-05 11912   0.975E-02    0.918E-02
DAV:  11    -0.175408801107E+02   -0.30410E-04   -0.26198E-05 10552   0.591E-02    0.163E-02
DAV:  12    -0.175408786243E+02    0.14863E-05   -0.72479E-07 13328   0.927E-03    0.186E-02
DAV:  13    -0.175408829699E+02   -0.43455E-05   -0.11171E-07  8664   0.364E-03    0.419E-03
DAV:  14    -0.175408829376E+02    0.32314E-07   -0.13302E-08  5744   0.128E-03
   1 F= -.17540883E+02 E0= -.17540883E+02  d E =0.000000E+00
