       N       E                     dE             d eps       ncg     rms          rms(c)
DAV:   1     0.264306071920E+01    0.26431E+01   -0.42174E+03  7280   0.116E+03
DAV:   2    -0.184217270534E+02   -0.21065E+02   -0.20765E+02 10768   0.920E+01
DAV:   3    -0.187097652159E+02   -0.28804E+00   -0.28804E+00  9856   0.135E+01
DAV:   4    -0.187109544373E+02   -0.11892E-02   -0.11892E-02 11176   0.936E-01
DAV:   5    -0.187109565707E+02   -0.21334E-05   -0.21341E-05 10032   0.311E-02    0.581E+00
DAV:   6    -0.174555164853E+02    0.12554E+01   -0.12691E-01  8920   0.295E+00    0.391E+00
DAV:   7    -0.175344733445E+02   -0.78957E-01   -0.34621E-02  8208   0.163E+00    0.298E+00
DAV:   8    -0.175414200443E+02   -0.69467E-02   -0.66654E-02  9960   0.180E+00    0.183E-01
DAV:   9    -0.175410325949E+02    0.38745E-03   -0.17042E-03  9304   0.296E-01    0.218E-01
DAV:  10    -0.175410859186E+02   -0.53324E-04   -0.71218E-05 10720   0.946E-02    0.827E-02
DAV:  11    -0.175411118536E+02   -0.25935E-04   -0.20552E-05  9400   0.505E-02    0.108E-02
DAV:  12    -0.175411099818E+02    0.18718E-05   -0.64838E-07 12040   0.818E-03    0.137E-02
DAV:  13    -0.175411142493E+02   -0.42676E-05   -0.12781E-07  7440   0.370E-03    0.241E-03
DAV:  14    -0.175411137561E+02    0.49321E-06   -0.35417E-08  5328   0.205E-03    0.299E-04
DAV:  15    -0.175411137939E+02   -0.37823E-07   -0.16142E-09  4440   0.446E-04
   1 F= -.17541114E+02 E0= -.17541114E+02  d E =0.000000E+00
