       N       E                     dE             d eps       ncg     rms          rms(c)
DAV:   1     0.320631710860E+01    0.32063E+01   -0.42895E+03  8176   0.117E+03
DAV:   2    -0.184269585917E+02   -0.21633E+02   -0.21322E+02 12048   0.944E+01
DAV:   3    -0.187098377751E+02   -0.28288E+00   -0.28288E+00 10992   0.135E+01
DAV:   4    -0.187110040511E+02   -0.11663E-02   -0.11663E-02 12728   0.927E-01
DAV:   5    -0.187110057897E+02   -0.17386E-05   -0.17385E-05 11088   0.269E-02    0.617E+00
DAV:   6    -0.174568918196E+02    0.12541E+01   -0.13917E-01 10704   0.305E+00    0.418E+00
DAV:   7    -0.175392376590E+02   -0.82346E-01   -0.38263E-02  9288   0.169E+00    0.321E+00
DAV:   8    -0.175447507594E+02   -0.55131E-02   -0.76048E-02 11032   0.193E+00    0.188E-01
DAV:   9    -0.175441903584E+02    0.56040E-03   -0.20045E-03 10560   0.319E-01    0.234E-01
DAV:  10    -0.175442530175E+02   -0.62659E-04   -0.72761E-05 11872   0.972E-02    0.911E-02
DAV:  11    -0.175442830105E+02   -0.29993E-04   -0.25544E-05 10448   0.582E-02    0.156E-02
DAV:  12    -0.175442815120E+02    0.14985E-05   -0.71366E-07 13472   0.915E-03    0.181E-02
DAV:  13    -0.175442858302E+02   -0.43182E-05   -0.11014E-07  8256   0.360E-03    0.416E-03
DAV:  14    -0.175442857785E+02    0.51703E-07   -0.15921E-08  5816   0.140E-03
   1 F= -.17544286E+02 E0= -.17544286E+02  d E =0.000000E+00
