       N       E                     dE             d eps       ncg     rms          rms(c)
DAV:   1     0.304121352715E+01    0.30412E+01   -0.42633E+03  7280   0.117E+03
DAV:   2    -0.184329675541E+02   -0.21474E+02   -0.21217E+02 10672   0.940E+01
DAV:   3    -0.187165794476E+02   -0.28361E+00   -0.28361E+00  9512   0.135E+01
DAV:   4    -0.187178836150E+02   -0.13042E-02   -0.13042E-02 11456   0.988E-01
DAV:   5    -0.187178854746E+02   -0.18595E-05   -0.18595E-05  9944   0.290E-02    0.597E+00
DAV:   6    -0.174634094484E+02    0.12545E+01   -0.13208E-01  9048   0.299E+00    0.403E+00
DAV:   7    -0.175439044999E+02   -0.80495E-01   -0.36265E-02  8384   0.166E+00    0.308E+00
DAV:   8    -0.175502486780E+02   -0.63442E-02   -0.70727E-02  9856   0.186E+00    0.185E-01
DAV:   9    -0.175497856379E+02    0.46304E-03   -0.18346E-03  9296   0.306E-01    0.225E-01
DAV:  10    -0.175498430854E+02   -0.57448E-04   -0.71649E-05 10720   0.957E-02    0.865E-02
DAV:  11    -0.175498711761E+02   -0.28091E-04   -0.22656E-05  9336   0.539E-02    0.128E-02
DAV:  12    -0.175498695258E+02    0.16503E-05   -0.67533E-07 12160   0.866E-03    0.158E-02
DAV:  13    -0.175498738046E+02   -0.42789E-05   -0.11602E-07  6952   0.361E-03    0.336E-03
DAV:  14    -0.175498735407E+02    0.26397E-06   -0.25863E-08  5208   0.177E-03    0.262E-04
DAV:  15    -0.175498735663E+02   -0.25597E-07   -0.12975E-09  4440   0.393E-04
   1 F= -.17549874E+02 E0= -.17549874E+02  d E =0.000000E+00
