       N       E                     dE             d eps       ncg     rms          rms(c)
DAV:   1     0.319805774260E+01    0.31981E+01   -0.42420E+03  7280   0.117E+03
DAV:   2    -0.183956249695E+02   -0.21594E+02   -0.21292E+02 10616   0.930E+01
DAV:   3    -0.186926708578E+02   -0.29705E+00   -0.29705E+00  9936   0.136E+01
DAV:   4    -0.186939121749E+02   -0.12413E-02   -0.12413E-02 11120   0.944E-01
DAV:   5    -0.186939146371E+02   -0.24622E-05   -0.24617E-05 10120   0.317E-02    0.567E+00
DAV:   6    -0.174369120398E+02    0.12570E+01   -0.12214E-01  8472   0.291E+00    0.380E+00
DAV:   7    -0.175142969956E+02   -0.77385E-01   -0.33228E-02  8264   0.161E+00    0.288E+00
DAV:   8    -0.175218011336E+02   -0.75041E-02   -0.62726E-02  9896   0.175E+00    0.180E-01
DAV:   9    -0.175214861714E+02    0.31496E-03   -0.15758E-03  9416   0.286E-01    0.210E-01
DAV:  10    -0.175215356339E+02   -0.49463E-04   -0.71072E-05 10392   0.935E-02    0.784E-02
DAV:  11    -0.175215593576E+02   -0.23724E-04   -0.18749E-05  9584   0.473E-02    0.920E-03
DAV:  12    -0.175215572157E+02    0.21419E-05   -0.61654E-07 11832   0.765E-03    0.115E-02
DAV:  13    -0.175215615020E+02   -0.42863E-05   -0.15576E-07  8280   0.398E-03    0.137E-03
DAV:  14    -0.175215607363E+02    0.76574E-06   -0.42482E-08  5144   0.220E-03    0.325E-04
DAV:  15    -0.175215607832E+02   -0.46924E-07   -0.17808E-09  4200   0.481E-04
   1 F= -.17521561E+02 E0= -.17521561E+02  d E =0.000000E+00
