 vasp.6.1.2 22Jul20 (build Mar 11 2021 17:42:27) complex                        
  
 executed on             LinuxIFC date 2021.03.11  17:59:22
 running on   40 total cores
 distrk:  each k-point on   20 cores,    2 groups
 distr:  one band on NCORE=  10 cores,    2 groups


--------------------------------------------------------------------------------------------------------


 INCAR:
 POTCAR:    PAW_PBE Si 05Jan2001                  
 POTCAR:    PAW_PBE Si 05Jan2001                  
   VRHFIN =Si: s2p2                                                                                 
   LEXCH  = PE                                                                                      
   EATOM  =   103.0669 eV,    7.5752 Ry                                                             
                                                                                                    
   TITEL  = PAW_PBE Si 05Jan2001                                                                    
   LULTRA =        F    use ultrasoft PP ?                                                          
   IUNSCR =        1    unscreen: 0-lin 1-nonlin 2-no                                               
   RPACOR =    1.500    partial core radius                                                         
   POMASS =   28.085; ZVAL   =    4.000    mass and valenz                                          
   RCORE  =    1.900    outmost cutoff radius                                                       
   RWIGS  =    2.480; RWIGS  =    1.312    wigner-seitz radius (au A)                               
   ENMAX  =  245.345; ENMIN  =  184.009 eV                                                          
   ICORE  =        2    local potential                                                             
   LCOR   =        T    correct aug charges                                                         
   LPAW   =        T    paw PP                                                                      
   EAUG   =  322.069                                                                                
   DEXC   =    0.000                                                                                
   RMAX   =    1.950    core radius for proj-oper                                                   
   RAUG   =    1.300    factor for augmentation sphere                                              
   RDEP   =    1.993    radius for radial grids                                                     
   RDEPT  =    1.837    core radius for aug-charge                                                  
                                                                                                    
   Atomic configuration                                                                             
    6 entries                                                                                       
     n  l   j            E        occ.                                                              
     1  0  0.50     -1785.8828   2.0000                                                             
     2  0  0.50      -139.4969   2.0000                                                             
     2  1  1.50       -95.5546   6.0000                                                             
     3  0  0.50       -10.8127   2.0000                                                             
     3  1  0.50        -4.0811   2.0000                                                             
     3  2  1.50        -4.0817   0.0000                                                             
   Description                                                                                      
     l       E           TYP  RCUT    TYP  RCUT                                                     
     0    -10.8127223     23  1.900                                                                 
     0     -7.6451159     23  1.900                                                                 
     1     -4.0811372     23  1.900                                                                 
     1      2.4879257     23  1.900                                                                 
     2     -4.0817478      7  1.900                                                                 
  local pseudopotential read in
  partial core-charges read in
  partial kinetic energy density read in
  atomic valenz-charges read in
  non local Contribution for L=           0  read in
    real space projection operators read in
  non local Contribution for L=           0  read in
    real space projection operators read in
  non local Contribution for L=           1  read in
    real space projection operators read in
  non local Contribution for L=           1  read in
    real space projection operators read in
    PAW grid and wavefunctions read in
 
   number of l-projection  operators is LMAX  =           4
   number of lm-projection operators is LMMAX =           8
 
  PAW_PBE Si 05Jan2001                  :
 energy of atom  1       EATOM= -103.0669
 kinetic energy error for atom=    0.0002 (will be added to EATOM!!)
 
 
 POSCAR: Unknown
  positions in direct lattice
  No initial velocities read in

 METAGGA = R2SCA    LMAXTAU =  6    LMIXTAU =  T

 exchange correlation table for  LEXCH =        8
   RHO(1)=    0.500       N(1)  =     2000
   RHO(2)=  100.500       N(2)  =     4000
 


--------------------------------------------------------------------------------------------------------


 ion  position               nearest neighbor table
   1  0.875  0.875  0.875-   2 2.57   2 2.57   2 2.57   2 2.57
   2  0.125  0.125  0.125-   1 2.57   1 2.57   1 2.57   1 2.57
 
  LATTYP: Found a face centered cubic cell.
 ALAT       =     5.9300000000
  
  Lattice vectors:
  
 A1 = (   0.0000000000,   2.9650000000,   2.9650000000)
 A2 = (   2.9650000000,   0.0000000000,   2.9650000000)
 A3 = (   2.9650000000,   2.9650000000,   0.0000000000)


Analysis of symmetry for initial positions (statically):
=====================================================================
 Subroutine PRICEL returns:
 Original cell was already a primitive cell.
 

 Routine SETGRP: Setting up the symmetry group for a 
 face centered cubic supercell.


 Subroutine GETGRP returns: Found 48 space group operations
 (whereof 12 operations were pure point group operations)
 out of a pool of 48 trial point group operations.


The static configuration has the point symmetry D_3d.
 The point group associated with its full space group is O_h .


Analysis of symmetry for dynamics (positions and initial velocities):
=====================================================================
 Subroutine PRICEL returns:
 Original cell was already a primitive cell.
 

 Routine SETGRP: Setting up the symmetry group for a 
 face centered cubic supercell.


 Subroutine GETGRP returns: Found 48 space group operations
 (whereof 12 operations were pure point group operations)
 out of a pool of 48 trial point group operations.


The dynamic configuration has the point symmetry D_3d.
 The point group associated with its full space group is O_h .


 Subroutine INISYM returns: Found 48 space group operations
 (whereof 12 operations are pure point group operations),
 and found     1 'primitive' translations


----------------------------------------------------------------------------------------

                                     Primitive cell                                     

  volume of cell :      52.1320

  direct lattice vectors                    reciprocal lattice vectors
     0.000000000  2.965000000  2.965000000    -0.168634064  0.168634064  0.168634064
     2.965000000  0.000000000  2.965000000     0.168634064 -0.168634064  0.168634064
     2.965000000  2.965000000  0.000000000     0.168634064  0.168634064 -0.168634064

  length of vectors
     4.193143212  4.193143212  4.193143212     0.292082767  0.292082767  0.292082767

  position of ions in fractional coordinates (direct lattice)
     0.875000000  0.875000000  0.875000000
     0.125000000  0.125000000  0.125000000

  ion indices of the primitive-cell ions
   primitive index   ion index
                 1           1
                 2           2

----------------------------------------------------------------------------------------

 
 

Automatic generation of k-mesh.
 generate k-points for:   23   23   23
Space group operators:
 irot       det(A)        alpha          n_x          n_y          n_z        tau_x        tau_y        tau_z
    1     1.000000     0.000000     1.000000     0.000000     0.000000     0.000000     0.000000     0.000000
    2    -1.000000     0.000000     1.000000     0.000000     0.000000     0.000000     0.000000     0.000000
    3     1.000000   120.000000    -0.577350    -0.577350    -0.577350     0.000000     0.000000     0.000000
    4    -1.000000   120.000000    -0.577350    -0.577350    -0.577350     0.000000     0.000000     0.000000
    5     1.000000   120.000000     0.577350     0.577350     0.577350     0.000000     0.000000     0.000000
    6    -1.000000   120.000000     0.577350     0.577350     0.577350     0.000000     0.000000     0.000000
    7     1.000000   180.000000     0.000000    -0.707107     0.707107     0.000000     0.000000     0.000000
    8    -1.000000   180.000000     0.000000    -0.707107     0.707107     0.000000     0.000000     0.000000
    9     1.000000   180.000000     0.707107    -0.707107     0.000000     0.000000     0.000000     0.000000
   10    -1.000000   180.000000     0.707107    -0.707107     0.000000     0.000000     0.000000     0.000000
   11     1.000000   180.000000     0.707107     0.000000    -0.707107     0.000000     0.000000     0.000000
   12    -1.000000   180.000000     0.707107     0.000000    -0.707107     0.000000     0.000000     0.000000
   13     1.000000    90.000000     0.000000     0.000000    -1.000000    -0.500000     0.000000     0.000000
   14    -1.000000    90.000000     0.000000     0.000000    -1.000000    -0.500000     0.000000     0.000000
   15     1.000000   180.000000     0.000000     0.707107     0.707107    -0.500000     0.000000     0.000000
   16    -1.000000   180.000000     0.000000     0.707107     0.707107    -0.500000     0.000000     0.000000
   17     1.000000    90.000000     0.000000     1.000000     0.000000    -0.500000     0.000000     0.000000
   18    -1.000000    90.000000     0.000000     1.000000     0.000000    -0.500000     0.000000     0.000000
   19     1.000000   180.000000     0.000000     0.000000     1.000000     0.000000     0.000000    -0.500000
   20    -1.000000   180.000000     0.000000     0.000000     1.000000     0.000000     0.000000    -0.500000
   21     1.000000   120.000000    -0.577350     0.577350     0.577350     0.000000     0.000000    -0.500000
   22    -1.000000   120.000000    -0.577350     0.577350     0.577350     0.000000     0.000000    -0.500000
   23     1.000000   120.000000    -0.577350     0.577350    -0.577350     0.000000     0.000000    -0.500000
   24    -1.000000   120.000000    -0.577350     0.577350    -0.577350     0.000000     0.000000    -0.500000
   25     1.000000    90.000000     0.000000     0.000000     1.000000     0.000000    -0.500000     0.000000
   26    -1.000000    90.000000     0.000000     0.000000     1.000000     0.000000    -0.500000     0.000000
   27     1.000000    90.000000    -1.000000     0.000000     0.000000     0.000000    -0.500000     0.000000
   28    -1.000000    90.000000    -1.000000     0.000000     0.000000     0.000000    -0.500000     0.000000
   29     1.000000   180.000000     0.707107     0.000000     0.707107     0.000000    -0.500000     0.000000
   30    -1.000000   180.000000     0.707107     0.000000     0.707107     0.000000    -0.500000     0.000000
   31     1.000000   120.000000     0.577350    -0.577350     0.577350    -0.500000     0.000000     0.000000
   32    -1.000000   120.000000     0.577350    -0.577350     0.577350    -0.500000     0.000000     0.000000
   33     1.000000   120.000000    -0.577350    -0.577350     0.577350    -0.500000     0.000000     0.000000
   34    -1.000000   120.000000    -0.577350    -0.577350     0.577350    -0.500000     0.000000     0.000000
   35     1.000000   180.000000     1.000000     0.000000     0.000000    -0.500000     0.000000     0.000000
   36    -1.000000   180.000000     1.000000     0.000000     0.000000    -0.500000     0.000000     0.000000
   37     1.000000    90.000000     0.000000    -1.000000     0.000000     0.000000     0.000000    -0.500000
   38    -1.000000    90.000000     0.000000    -1.000000     0.000000     0.000000     0.000000    -0.500000
   39     1.000000   180.000000     0.707107     0.707107     0.000000     0.000000     0.000000    -0.500000
   40    -1.000000   180.000000     0.707107     0.707107     0.000000     0.000000     0.000000    -0.500000
   41     1.000000    90.000000     1.000000     0.000000     0.000000     0.000000     0.000000    -0.500000
   42    -1.000000    90.000000     1.000000     0.000000     0.000000     0.000000     0.000000    -0.500000
   43     1.000000   120.000000     0.577350    -0.577350    -0.577350     0.000000    -0.500000     0.000000
   44    -1.000000   120.000000     0.577350    -0.577350    -0.577350     0.000000    -0.500000     0.000000
   45     1.000000   180.000000     0.000000     1.000000     0.000000     0.000000    -0.500000     0.000000
   46    -1.000000   180.000000     0.000000     1.000000     0.000000     0.000000    -0.500000     0.000000
   47     1.000000   120.000000     0.577350     0.577350    -0.577350     0.000000    -0.500000     0.000000
   48    -1.000000   120.000000     0.577350     0.577350    -0.577350     0.000000    -0.500000     0.000000
 TETIRR: Found   1662 inequivalent tetrahedra from    73002
 
 Subroutine IBZKPT returns following result:
 ===========================================
 
 Found    364 irreducible k-points:
 
 Following reciprocal coordinates:
            Coordinates               Weight
  0.000000  0.000000  0.000000      1.000000
  0.043478  0.000000  0.000000      8.000000
  0.086957  0.000000  0.000000      8.000000
  0.130435  0.000000  0.000000      8.000000
  0.173913  0.000000  0.000000      8.000000
  0.217391  0.000000  0.000000      8.000000
  0.260870  0.000000  0.000000      8.000000
  0.304348  0.000000  0.000000      8.000000
  0.347826  0.000000  0.000000      8.000000
  0.391304  0.000000  0.000000      8.000000
  0.434783  0.000000  0.000000      8.000000
  0.478261  0.000000  0.000000      8.000000
  0.043478  0.043478  0.000000      6.000000
  0.086957  0.043478  0.000000     24.000000
  0.130435  0.043478  0.000000     24.000000
  0.173913  0.043478  0.000000     24.000000
  0.217391  0.043478  0.000000     24.000000
  0.260870  0.043478  0.000000     24.000000
  0.304348  0.043478  0.000000     24.000000
  0.347826  0.043478  0.000000     24.000000
  0.391304  0.043478  0.000000     24.000000
  0.434783  0.043478  0.000000     24.000000
  0.478261  0.043478  0.000000     24.000000
 -0.478261  0.043478  0.000000     24.000000
 -0.434783  0.043478  0.000000     24.000000
 -0.391304  0.043478  0.000000     24.000000
 -0.347826  0.043478  0.000000     24.000000
 -0.304348  0.043478  0.000000     24.000000
 -0.260870  0.043478  0.000000     24.000000
 -0.217391  0.043478  0.000000     24.000000
 -0.173913  0.043478  0.000000     24.000000
 -0.130435  0.043478  0.000000     24.000000
 -0.086957  0.043478  0.000000     24.000000
 -0.043478  0.043478  0.000000     12.000000
  0.086957  0.086957  0.000000      6.000000
  0.130435  0.086957  0.000000     24.000000
  0.173913  0.086957  0.000000     24.000000
  0.217391  0.086957  0.000000     24.000000
  0.260870  0.086957  0.000000     24.000000
  0.304348  0.086957  0.000000     24.000000
  0.347826  0.086957  0.000000     24.000000
  0.391304  0.086957  0.000000     24.000000
  0.434783  0.086957  0.000000     24.000000
  0.478261  0.086957  0.000000     24.000000
 -0.478261  0.086957  0.000000     24.000000
 -0.434783  0.086957  0.000000     24.000000
 -0.391304  0.086957  0.000000     24.000000
 -0.347826  0.086957  0.000000     24.000000
 -0.304348  0.086957  0.000000     24.000000
 -0.260870  0.086957  0.000000     24.000000
 -0.217391  0.086957  0.000000     24.000000
 -0.173913  0.086957  0.000000     24.000000
 -0.130435  0.086957  0.000000     24.000000
 -0.086957  0.086957  0.000000     12.000000
  0.130435  0.130435  0.000000      6.000000
  0.173913  0.130435  0.000000     24.000000
  0.217391  0.130435  0.000000     24.000000
  0.260870  0.130435  0.000000     24.000000
  0.304348  0.130435  0.000000     24.000000
  0.347826  0.130435  0.000000     24.000000
  0.391304  0.130435  0.000000     24.000000
  0.434783  0.130435  0.000000     24.000000
  0.478261  0.130435  0.000000     24.000000
 -0.478261  0.130435  0.000000     24.000000
 -0.434783  0.130435  0.000000     24.000000
 -0.391304  0.130435  0.000000     24.000000
 -0.347826  0.130435  0.000000     24.000000
 -0.304348  0.130435  0.000000     24.000000
 -0.260870  0.130435  0.000000     24.000000
 -0.217391  0.130435  0.000000     24.000000
 -0.173913  0.130435  0.000000     24.000000
 -0.130435  0.130435  0.000000     12.000000
  0.173913  0.173913  0.000000      6.000000
  0.217391  0.173913  0.000000     24.000000
  0.260870  0.173913  0.000000     24.000000
  0.304348  0.173913  0.000000     24.000000
  0.347826  0.173913  0.000000     24.000000
  0.391304  0.173913  0.000000     24.000000
  0.434783  0.173913  0.000000     24.000000
  0.478261  0.173913  0.000000     24.000000
 -0.478261  0.173913  0.000000     24.000000
 -0.434783  0.173913  0.000000     24.000000
 -0.391304  0.173913  0.000000     24.000000
 -0.347826  0.173913  0.000000     24.000000
 -0.304348  0.173913  0.000000     24.000000
 -0.260870  0.173913  0.000000     24.000000
 -0.217391  0.173913  0.000000     24.000000
 -0.173913  0.173913  0.000000     12.000000
  0.217391  0.217391  0.000000      6.000000
  0.260870  0.217391  0.000000     24.000000
  0.304348  0.217391  0.000000     24.000000
  0.347826  0.217391  0.000000     24.000000
  0.391304  0.217391  0.000000     24.000000
  0.434783  0.217391  0.000000     24.000000
  0.478261  0.217391  0.000000     24.000000
 -0.478261  0.217391  0.000000     24.000000
 -0.434783  0.217391  0.000000     24.000000
 -0.391304  0.217391  0.000000     24.000000
 -0.347826  0.217391  0.000000     24.000000
 -0.304348  0.217391  0.000000     24.000000
 -0.260870  0.217391  0.000000     24.000000
 -0.217391  0.217391  0.000000     12.000000
  0.260870  0.260870  0.000000      6.000000
  0.304348  0.260870  0.000000     24.000000
  0.347826  0.260870  0.000000     24.000000
  0.391304  0.260870  0.000000     24.000000
  0.434783  0.260870  0.000000     24.000000
  0.478261  0.260870  0.000000     24.000000
 -0.478261  0.260870  0.000000     24.000000
 -0.434783  0.260870  0.000000     24.000000
 -0.391304  0.260870  0.000000     24.000000
 -0.347826  0.260870  0.000000     24.000000
 -0.304348  0.260870  0.000000     24.000000
 -0.260870  0.260870  0.000000     12.000000
  0.304348  0.304348  0.000000      6.000000
  0.347826  0.304348  0.000000     24.000000
  0.391304  0.304348  0.000000     24.000000
  0.434783  0.304348  0.000000     24.000000
  0.478261  0.304348  0.000000     24.000000
 -0.478261  0.304348  0.000000     24.000000
 -0.434783  0.304348  0.000000     24.000000
 -0.391304  0.304348  0.000000     24.000000
 -0.347826  0.304348  0.000000     24.000000
 -0.304348  0.304348  0.000000     12.000000
  0.347826  0.347826  0.000000      6.000000
  0.391304  0.347826  0.000000     24.000000
  0.434783  0.347826  0.000000     24.000000
  0.478261  0.347826  0.000000     24.000000
 -0.478261  0.347826  0.000000     24.000000
 -0.434783  0.347826  0.000000     24.000000
 -0.391304  0.347826  0.000000     24.000000
 -0.347826  0.347826  0.000000     12.000000
  0.391304  0.391304  0.000000      6.000000
  0.434783  0.391304  0.000000     24.000000
  0.478261  0.391304  0.000000     24.000000
 -0.478261  0.391304  0.000000     24.000000
 -0.434783  0.391304  0.000000     24.000000
 -0.391304  0.391304  0.000000     12.000000
  0.434783  0.434783  0.000000      6.000000
  0.478261  0.434783  0.000000     24.000000
 -0.478261  0.434783  0.000000     24.000000
 -0.434783  0.434783  0.000000     12.000000
  0.478261  0.478261  0.000000      6.000000
 -0.478261  0.478261  0.000000     12.000000
  0.130435  0.086957  0.043478     24.000000
  0.173913  0.086957  0.043478     48.000000
  0.217391  0.086957  0.043478     48.000000
  0.260870  0.086957  0.043478     48.000000
  0.304348  0.086957  0.043478     48.000000
  0.347826  0.086957  0.043478     48.000000
  0.391304  0.086957  0.043478     48.000000
  0.434783  0.086957  0.043478     48.000000
  0.478261  0.086957  0.043478     48.000000
 -0.478261  0.086957  0.043478     48.000000
  0.173913  0.130435  0.043478     24.000000
  0.217391  0.130435  0.043478     48.000000
  0.260870  0.130435  0.043478     48.000000
  0.304348  0.130435  0.043478     48.000000
  0.347826  0.130435  0.043478     48.000000
  0.391304  0.130435  0.043478     48.000000
  0.434783  0.130435  0.043478     48.000000
  0.478261  0.130435  0.043478     48.000000
 -0.478261  0.130435  0.043478     48.000000
 -0.434783  0.130435  0.043478     48.000000
 -0.391304  0.130435  0.043478     48.000000
 -0.347826  0.130435  0.043478     48.000000
 -0.304348  0.130435  0.043478     48.000000
 -0.260870  0.130435  0.043478     48.000000
 -0.217391  0.130435  0.043478     48.000000
 -0.173913  0.130435  0.043478     48.000000
 -0.130435  0.130435  0.043478     48.000000
 -0.086957  0.130435  0.043478     24.000000
  0.217391  0.173913  0.043478     24.000000
  0.260870  0.173913  0.043478     48.000000
  0.304348  0.173913  0.043478     48.000000
  0.347826  0.173913  0.043478     48.000000
  0.391304  0.173913  0.043478     48.000000
  0.434783  0.173913  0.043478     48.000000
  0.478261  0.173913  0.043478     48.000000
 -0.478261  0.173913  0.043478     48.000000
 -0.434783  0.173913  0.043478     48.000000
 -0.391304  0.173913  0.043478     48.000000
 -0.347826  0.173913  0.043478     48.000000
 -0.304348  0.173913  0.043478     48.000000
 -0.260870  0.173913  0.043478     48.000000
 -0.217391  0.173913  0.043478     48.000000
 -0.173913  0.173913  0.043478     48.000000
 -0.130435  0.173913  0.043478     24.000000
  0.260870  0.217391  0.043478     24.000000
  0.304348  0.217391  0.043478     48.000000
  0.347826  0.217391  0.043478     48.000000
  0.391304  0.217391  0.043478     48.000000
  0.434783  0.217391  0.043478     48.000000
  0.478261  0.217391  0.043478     48.000000
 -0.478261  0.217391  0.043478     48.000000
 -0.434783  0.217391  0.043478     48.000000
 -0.391304  0.217391  0.043478     48.000000
 -0.347826  0.217391  0.043478     48.000000
 -0.304348  0.217391  0.043478     48.000000
 -0.260870  0.217391  0.043478     48.000000
 -0.217391  0.217391  0.043478     48.000000
 -0.173913  0.217391  0.043478     24.000000
  0.304348  0.260870  0.043478     24.000000
  0.347826  0.260870  0.043478     48.000000
  0.391304  0.260870  0.043478     48.000000
  0.434783  0.260870  0.043478     48.000000
  0.478261  0.260870  0.043478     48.000000
 -0.478261  0.260870  0.043478     48.000000
 -0.434783  0.260870  0.043478     48.000000
 -0.391304  0.260870  0.043478     48.000000
 -0.347826  0.260870  0.043478     48.000000
 -0.304348  0.260870  0.043478     48.000000
 -0.260870  0.260870  0.043478     48.000000
 -0.217391  0.260870  0.043478     24.000000
  0.347826  0.304348  0.043478     24.000000
  0.391304  0.304348  0.043478     48.000000
  0.434783  0.304348  0.043478     48.000000
  0.478261  0.304348  0.043478     48.000000
 -0.478261  0.304348  0.043478     48.000000
 -0.434783  0.304348  0.043478     48.000000
 -0.391304  0.304348  0.043478     48.000000
 -0.347826  0.304348  0.043478     48.000000
 -0.304348  0.304348  0.043478     48.000000
 -0.260870  0.304348  0.043478     24.000000
  0.391304  0.347826  0.043478     24.000000
  0.434783  0.347826  0.043478     48.000000
  0.478261  0.347826  0.043478     48.000000
 -0.478261  0.347826  0.043478     48.000000
 -0.434783  0.347826  0.043478     48.000000
 -0.391304  0.347826  0.043478     48.000000
 -0.347826  0.347826  0.043478     48.000000
 -0.304348  0.347826  0.043478     24.000000
  0.434783  0.391304  0.043478     24.000000
  0.478261  0.391304  0.043478     48.000000
 -0.478261  0.391304  0.043478     48.000000
 -0.434783  0.391304  0.043478     48.000000
 -0.391304  0.391304  0.043478     48.000000
 -0.347826  0.391304  0.043478     24.000000
  0.478261  0.434783  0.043478     24.000000
 -0.478261  0.434783  0.043478     48.000000
 -0.434783  0.434783  0.043478     48.000000
 -0.391304  0.434783  0.043478     24.000000
 -0.478261  0.478261  0.043478     24.000000
 -0.434783  0.478261  0.043478     24.000000
  0.260870  0.173913  0.086957     24.000000
  0.304348  0.173913  0.086957     48.000000
  0.347826  0.173913  0.086957     48.000000
  0.391304  0.173913  0.086957     48.000000
  0.434783  0.173913  0.086957     48.000000
  0.478261  0.173913  0.086957     48.000000
 -0.478261  0.173913  0.086957     48.000000
 -0.434783  0.173913  0.086957     48.000000
  0.304348  0.217391  0.086957     24.000000
  0.347826  0.217391  0.086957     48.000000
  0.391304  0.217391  0.086957     48.000000
  0.434783  0.217391  0.086957     48.000000
  0.478261  0.217391  0.086957     48.000000
 -0.478261  0.217391  0.086957     48.000000
 -0.434783  0.217391  0.086957     48.000000
 -0.391304  0.217391  0.086957     48.000000
 -0.347826  0.217391  0.086957     48.000000
 -0.304348  0.217391  0.086957     48.000000
 -0.260870  0.217391  0.086957     48.000000
 -0.217391  0.217391  0.086957     48.000000
 -0.173913  0.217391  0.086957     48.000000
 -0.130435  0.217391  0.086957     24.000000
  0.347826  0.260870  0.086957     24.000000
  0.391304  0.260870  0.086957     48.000000
  0.434783  0.260870  0.086957     48.000000
  0.478261  0.260870  0.086957     48.000000
 -0.478261  0.260870  0.086957     48.000000
 -0.434783  0.260870  0.086957     48.000000
 -0.391304  0.260870  0.086957     48.000000
 -0.347826  0.260870  0.086957     48.000000
 -0.304348  0.260870  0.086957     48.000000
 -0.260870  0.260870  0.086957     48.000000
 -0.217391  0.260870  0.086957     48.000000
 -0.173913  0.260870  0.086957     24.000000
  0.391304  0.304348  0.086957     24.000000
  0.434783  0.304348  0.086957     48.000000
  0.478261  0.304348  0.086957     48.000000
 -0.478261  0.304348  0.086957     48.000000
 -0.434783  0.304348  0.086957     48.000000
 -0.391304  0.304348  0.086957     48.000000
 -0.347826  0.304348  0.086957     48.000000
 -0.304348  0.304348  0.086957     48.000000
 -0.260870  0.304348  0.086957     48.000000
 -0.217391  0.304348  0.086957     24.000000
  0.434783  0.347826  0.086957     24.000000
  0.478261  0.347826  0.086957     48.000000
 -0.478261  0.347826  0.086957     48.000000
 -0.434783  0.347826  0.086957     48.000000
 -0.391304  0.347826  0.086957     48.000000
 -0.347826  0.347826  0.086957     48.000000
 -0.304348  0.347826  0.086957     48.000000
 -0.260870  0.347826  0.086957     24.000000
  0.478261  0.391304  0.086957     24.000000
 -0.478261  0.391304  0.086957     48.000000
 -0.434783  0.391304  0.086957     48.000000
 -0.391304  0.391304  0.086957     48.000000
 -0.347826  0.391304  0.086957     48.000000
 -0.304348  0.391304  0.086957     24.000000
 -0.478261  0.434783  0.086957     24.000000
 -0.434783  0.434783  0.086957     48.000000
 -0.391304  0.434783  0.086957     48.000000
 -0.347826  0.434783  0.086957     24.000000
 -0.434783  0.478261  0.086957     24.000000
 -0.391304  0.478261  0.086957     24.000000
  0.391304  0.260870  0.130435     24.000000
  0.434783  0.260870  0.130435     48.000000
  0.478261  0.260870  0.130435     48.000000
 -0.478261  0.260870  0.130435     48.000000
 -0.434783  0.260870  0.130435     48.000000
 -0.391304  0.260870  0.130435     48.000000
  0.434783  0.304348  0.130435     24.000000
  0.478261  0.304348  0.130435     48.000000
 -0.478261  0.304348  0.130435     48.000000
 -0.434783  0.304348  0.130435     48.000000
 -0.391304  0.304348  0.130435     48.000000
 -0.347826  0.304348  0.130435     48.000000
 -0.304348  0.304348  0.130435     48.000000
 -0.260870  0.304348  0.130435     48.000000
 -0.217391  0.304348  0.130435     48.000000
 -0.173913  0.304348  0.130435     24.000000
  0.478261  0.347826  0.130435     24.000000
 -0.478261  0.347826  0.130435     48.000000
 -0.434783  0.347826  0.130435     48.000000
 -0.391304  0.347826  0.130435     48.000000
 -0.347826  0.347826  0.130435     48.000000
 -0.304348  0.347826  0.130435     48.000000
 -0.260870  0.347826  0.130435     48.000000
 -0.217391  0.347826  0.130435     24.000000
 -0.478261  0.391304  0.130435     24.000000
 -0.434783  0.391304  0.130435     48.000000
 -0.391304  0.391304  0.130435     48.000000
 -0.347826  0.391304  0.130435     48.000000
 -0.304348  0.391304  0.130435     48.000000
 -0.260870  0.391304  0.130435     24.000000
 -0.434783  0.434783  0.130435     24.000000
 -0.391304  0.434783  0.130435     48.000000
 -0.347826  0.434783  0.130435     48.000000
 -0.304348  0.434783  0.130435     24.000000
 -0.391304  0.478261  0.130435     24.000000
 -0.347826  0.478261  0.130435     24.000000
 -0.478261  0.347826  0.173913     24.000000
 -0.434783  0.347826  0.173913     48.000000
 -0.391304  0.347826  0.173913     48.000000
 -0.347826  0.347826  0.173913     48.000000
 -0.434783  0.391304  0.173913     24.000000
 -0.391304  0.391304  0.173913     48.000000
 -0.347826  0.391304  0.173913     48.000000
 -0.304348  0.391304  0.173913     48.000000
 -0.260870  0.391304  0.173913     48.000000
 -0.217391  0.391304  0.173913     24.000000
 -0.391304  0.434783  0.173913     24.000000
 -0.347826  0.434783  0.173913     48.000000
 -0.304348  0.434783  0.173913     48.000000
 -0.260870  0.434783  0.173913     24.000000
 -0.347826  0.478261  0.173913     24.000000
 -0.304348  0.478261  0.173913     24.000000
 -0.347826  0.434783  0.217391     24.000000
 -0.304348  0.434783  0.217391     48.000000
 -0.304348  0.478261  0.217391     24.000000
 -0.260870  0.478261  0.217391     24.000000
 
 Following cartesian coordinates:
            Coordinates               Weight
  0.000000  0.000000  0.000000      1.000000
 -0.043478  0.043478  0.043478      8.000000
 -0.086957  0.086957  0.086957      8.000000
 -0.130435  0.130435  0.130435      8.000000
 -0.173913  0.173913  0.173913      8.000000
 -0.217391  0.217391  0.217391      8.000000
 -0.260870  0.260870  0.260870      8.000000
 -0.304348  0.304348  0.304348      8.000000
 -0.347826  0.347826  0.347826      8.000000
 -0.391304  0.391304  0.391304      8.000000
 -0.434783  0.434783  0.434783      8.000000
 -0.478261  0.478261  0.478261      8.000000
  0.000000  0.000000  0.086957      6.000000
 -0.043478  0.043478  0.130435     24.000000
 -0.086957  0.086957  0.173913     24.000000
 -0.130435  0.130435  0.217391     24.000000
 -0.173913  0.173913  0.260870     24.000000
 -0.217391  0.217391  0.304348     24.000000
 -0.260870  0.260870  0.347826     24.000000
 -0.304348  0.304348  0.391304     24.000000
 -0.347826  0.347826  0.434783     24.000000
 -0.391304  0.391304  0.478261     24.000000
 -0.434783  0.434783  0.521739     24.000000
  0.521739 -0.521739 -0.434783     24.000000
  0.478261 -0.478261 -0.391304     24.000000
  0.434783 -0.434783 -0.347826     24.000000
  0.391304 -0.391304 -0.304348     24.000000
  0.347826 -0.347826 -0.260870     24.000000
  0.304348 -0.304348 -0.217391     24.000000
  0.260870 -0.260870 -0.173913     24.000000
  0.217391 -0.217391 -0.130435     24.000000
  0.173913 -0.173913 -0.086957     24.000000
  0.130435 -0.130435 -0.043478     24.000000
  0.086957 -0.086957  0.000000     12.000000
  0.000000  0.000000  0.173913      6.000000
 -0.043478  0.043478  0.217391     24.000000
 -0.086957  0.086957  0.260870     24.000000
 -0.130435  0.130435  0.304348     24.000000
 -0.173913  0.173913  0.347826     24.000000
 -0.217391  0.217391  0.391304     24.000000
 -0.260870  0.260870  0.434783     24.000000
 -0.304348  0.304348  0.478261     24.000000
 -0.347826  0.347826  0.521739     24.000000
 -0.391304  0.391304  0.565217     24.000000
  0.565217 -0.565217 -0.391304     24.000000
  0.521739 -0.521739 -0.347826     24.000000
  0.478261 -0.478261 -0.304348     24.000000
  0.434783 -0.434783 -0.260870     24.000000
  0.391304 -0.391304 -0.217391     24.000000
  0.347826 -0.347826 -0.173913     24.000000
  0.304348 -0.304348 -0.130435     24.000000
  0.260870 -0.260870 -0.086957     24.000000
  0.217391 -0.217391 -0.043478     24.000000
  0.173913 -0.173913  0.000000     12.000000
  0.000000  0.000000  0.260870      6.000000
 -0.043478  0.043478  0.304348     24.000000
 -0.086957  0.086957  0.347826     24.000000
 -0.130435  0.130435  0.391304     24.000000
 -0.173913  0.173913  0.434783     24.000000
 -0.217391  0.217391  0.478261     24.000000
 -0.260870  0.260870  0.521739     24.000000
 -0.304348  0.304348  0.565217     24.000000
 -0.347826  0.347826  0.608696     24.000000
  0.608696 -0.608696 -0.347826     24.000000
  0.565217 -0.565217 -0.304348     24.000000
  0.521739 -0.521739 -0.260870     24.000000
  0.478261 -0.478261 -0.217391     24.000000
  0.434783 -0.434783 -0.173913     24.000000
  0.391304 -0.391304 -0.130435     24.000000
  0.347826 -0.347826 -0.086957     24.000000
  0.304348 -0.304348 -0.043478     24.000000
  0.260870 -0.260870  0.000000     12.000000
  0.000000  0.000000  0.347826      6.000000
 -0.043478  0.043478  0.391304     24.000000
 -0.086957  0.086957  0.434783     24.000000
 -0.130435  0.130435  0.478261     24.000000
 -0.173913  0.173913  0.521739     24.000000
 -0.217391  0.217391  0.565217     24.000000
 -0.260870  0.260870  0.608696     24.000000
 -0.304348  0.304348  0.652174     24.000000
  0.652174 -0.652174 -0.304348     24.000000
  0.608696 -0.608696 -0.260870     24.000000
  0.565217 -0.565217 -0.217391     24.000000
  0.521739 -0.521739 -0.173913     24.000000
  0.478261 -0.478261 -0.130435     24.000000
  0.434783 -0.434783 -0.086957     24.000000
  0.391304 -0.391304 -0.043478     24.000000
  0.347826 -0.347826  0.000000     12.000000
  0.000000  0.000000  0.434783      6.000000
 -0.043478  0.043478  0.478261     24.000000
 -0.086957  0.086957  0.521739     24.000000
 -0.130435  0.130435  0.565217     24.000000
 -0.173913  0.173913  0.608696     24.000000
 -0.217391  0.217391  0.652174     24.000000
 -0.260870  0.260870  0.695652     24.000000
  0.695652 -0.695652 -0.260870     24.000000
  0.652174 -0.652174 -0.217391     24.000000
  0.608696 -0.608696 -0.173913     24.000000
  0.565217 -0.565217 -0.130435     24.000000
  0.521739 -0.521739 -0.086957     24.000000
  0.478261 -0.478261 -0.043478     24.000000
  0.434783 -0.434783  0.000000     12.000000
  0.000000  0.000000  0.521739      6.000000
 -0.043478  0.043478  0.565217     24.000000
 -0.086957  0.086957  0.608696     24.000000
 -0.130435  0.130435  0.652174     24.000000
 -0.173913  0.173913  0.695652     24.000000
 -0.217391  0.217391  0.739130     24.000000
  0.739130 -0.739130 -0.217391     24.000000
  0.695652 -0.695652 -0.173913     24.000000
  0.652174 -0.652174 -0.130435     24.000000
  0.608696 -0.608696 -0.086957     24.000000
  0.565217 -0.565217 -0.043478     24.000000
  0.521739 -0.521739  0.000000     12.000000
  0.000000  0.000000  0.608696      6.000000
 -0.043478  0.043478  0.652174     24.000000
 -0.086957  0.086957  0.695652     24.000000
 -0.130435  0.130435  0.739130     24.000000
 -0.173913  0.173913  0.782609     24.000000
  0.782609 -0.782609 -0.173913     24.000000
  0.739130 -0.739130 -0.130435     24.000000
  0.695652 -0.695652 -0.086957     24.000000
  0.652174 -0.652174 -0.043478     24.000000
  0.608696 -0.608696  0.000000     12.000000
  0.000000  0.000000  0.695652      6.000000
 -0.043478  0.043478  0.739130     24.000000
 -0.086957  0.086957  0.782609     24.000000
 -0.130435  0.130435  0.826087     24.000000
  0.826087 -0.826087 -0.130435     24.000000
  0.782609 -0.782609 -0.086957     24.000000
  0.739130 -0.739130 -0.043478     24.000000
  0.695652 -0.695652  0.000000     12.000000
  0.000000  0.000000  0.782609      6.000000
 -0.043478  0.043478  0.826087     24.000000
 -0.086957  0.086957  0.869565     24.000000
  0.869565 -0.869565 -0.086957     24.000000
  0.826087 -0.826087 -0.043478     24.000000
  0.782609 -0.782609  0.000000     12.000000
  0.000000  0.000000  0.869565      6.000000
 -0.043478  0.043478  0.913043     24.000000
  0.913043 -0.913043 -0.043478     24.000000
  0.869565 -0.869565  0.000000     12.000000
  0.000000  0.000000  0.956522      6.000000
  0.956522 -0.956522  0.000000     12.000000
  0.000000  0.086957  0.173913     24.000000
 -0.043478  0.130435  0.217391     48.000000
 -0.086957  0.173913  0.260870     48.000000
 -0.130435  0.217391  0.304348     48.000000
 -0.173913  0.260870  0.347826     48.000000
 -0.217391  0.304348  0.391304     48.000000
 -0.260870  0.347826  0.434783     48.000000
 -0.304348  0.391304  0.478261     48.000000
 -0.347826  0.434783  0.521739     48.000000
  0.608696 -0.521739 -0.434783     48.000000
 -0.000000  0.086957  0.260870     24.000000
 -0.043478  0.130435  0.304348     48.000000
 -0.086957  0.173913  0.347826     48.000000
 -0.130435  0.217391  0.391304     48.000000
 -0.173913  0.260870  0.434783     48.000000
 -0.217391  0.304348  0.478261     48.000000
 -0.260870  0.347826  0.521739     48.000000
 -0.304348  0.391304  0.565217     48.000000
  0.652174 -0.565217 -0.391304     48.000000
  0.608696 -0.521739 -0.347826     48.000000
  0.565217 -0.478261 -0.304348     48.000000
  0.521739 -0.434783 -0.260870     48.000000
  0.478261 -0.391304 -0.217391     48.000000
  0.434783 -0.347826 -0.173913     48.000000
  0.391304 -0.304348 -0.130435     48.000000
  0.347826 -0.260870 -0.086957     48.000000
  0.304348 -0.217391 -0.043478     48.000000
  0.260870 -0.173913  0.000000     24.000000
 -0.000000  0.086957  0.347826     24.000000
 -0.043478  0.130435  0.391304     48.000000
 -0.086957  0.173913  0.434783     48.000000
 -0.130435  0.217391  0.478261     48.000000
 -0.173913  0.260870  0.521739     48.000000
 -0.217391  0.304348  0.565217     48.000000
 -0.260870  0.347826  0.608696     48.000000
  0.695652 -0.608696 -0.347826     48.000000
  0.652174 -0.565217 -0.304348     48.000000
  0.608696 -0.521739 -0.260870     48.000000
  0.565217 -0.478261 -0.217391     48.000000
  0.521739 -0.434783 -0.173913     48.000000
  0.478261 -0.391304 -0.130435     48.000000
  0.434783 -0.347826 -0.086957     48.000000
  0.391304 -0.304348 -0.043478     48.000000
  0.347826 -0.260870 -0.000000     24.000000
 -0.000000  0.086957  0.434783     24.000000
 -0.043478  0.130435  0.478261     48.000000
 -0.086957  0.173913  0.521739     48.000000
 -0.130435  0.217391  0.565217     48.000000
 -0.173913  0.260870  0.608696     48.000000
 -0.217391  0.304348  0.652174     48.000000
  0.739130 -0.652174 -0.304348     48.000000
  0.695652 -0.608696 -0.260870     48.000000
  0.652174 -0.565217 -0.217391     48.000000
  0.608696 -0.521739 -0.173913     48.000000
  0.565217 -0.478261 -0.130435     48.000000
  0.521739 -0.434783 -0.086957     48.000000
  0.478261 -0.391304 -0.043478     48.000000
  0.434783 -0.347826  0.000000     24.000000
  0.000000  0.086957  0.521739     24.000000
 -0.043478  0.130435  0.565217     48.000000
 -0.086957  0.173913  0.608696     48.000000
 -0.130435  0.217391  0.652174     48.000000
 -0.173913  0.260870  0.695652     48.000000
  0.782609 -0.695652 -0.260870     48.000000
  0.739130 -0.652174 -0.217391     48.000000
  0.695652 -0.608696 -0.173913     48.000000
  0.652174 -0.565217 -0.130435     48.000000
  0.608696 -0.521739 -0.086957     48.000000
  0.565217 -0.478261 -0.043478     48.000000
  0.521739 -0.434783  0.000000     24.000000
 -0.000000  0.086957  0.608696     24.000000
 -0.043478  0.130435  0.652174     48.000000
 -0.086957  0.173913  0.695652     48.000000
 -0.130435  0.217391  0.739130     48.000000
  0.826087 -0.739130 -0.217391     48.000000
  0.782609 -0.695652 -0.173913     48.000000
  0.739130 -0.652174 -0.130435     48.000000
  0.695652 -0.608696 -0.086957     48.000000
  0.652174 -0.565217 -0.043478     48.000000
  0.608696 -0.521739 -0.000000     24.000000
 -0.000000  0.086957  0.695652     24.000000
 -0.043478  0.130435  0.739130     48.000000
 -0.086957  0.173913  0.782609     48.000000
  0.869565 -0.782609 -0.173913     48.000000
  0.826087 -0.739130 -0.130435     48.000000
  0.782609 -0.695652 -0.086957     48.000000
  0.739130 -0.652174 -0.043478     48.000000
  0.695652 -0.608696  0.000000     24.000000
  0.000000  0.086957  0.782609     24.000000
 -0.043478  0.130435  0.826087     48.000000
  0.913043 -0.826087 -0.130435     48.000000
  0.869565 -0.782609 -0.086957     48.000000
  0.826087 -0.739130 -0.043478     48.000000
  0.782609 -0.695652 -0.000000     24.000000
 -0.000000  0.086957  0.869565     24.000000
  0.956522 -0.869565 -0.086957     48.000000
  0.913043 -0.826087 -0.043478     48.000000
  0.869565 -0.782609  0.000000     24.000000
  1.000000 -0.913043 -0.043478     24.000000
  0.956522 -0.869565  0.000000     24.000000
  0.000000  0.173913  0.347826     24.000000
 -0.043478  0.217391  0.391304     48.000000
 -0.086957  0.260870  0.434783     48.000000
 -0.130435  0.304348  0.478261     48.000000
 -0.173913  0.347826  0.521739     48.000000
 -0.217391  0.391304  0.565217     48.000000
  0.739130 -0.565217 -0.391304     48.000000
  0.695652 -0.521739 -0.347826     48.000000
  0.000000  0.173913  0.434783     24.000000
 -0.043478  0.217391  0.478261     48.000000
 -0.086957  0.260870  0.521739     48.000000
 -0.130435  0.304348  0.565217     48.000000
 -0.173913  0.347826  0.608696     48.000000
  0.782609 -0.608696 -0.347826     48.000000
  0.739130 -0.565217 -0.304348     48.000000
  0.695652 -0.521739 -0.260870     48.000000
  0.652174 -0.478261 -0.217391     48.000000
  0.608696 -0.434783 -0.173913     48.000000
  0.565217 -0.391304 -0.130435     48.000000
  0.521739 -0.347826 -0.086957     48.000000
  0.478261 -0.304348 -0.043478     48.000000
  0.434783 -0.260870 -0.000000     24.000000
  0.000000  0.173913  0.521739     24.000000
 -0.043478  0.217391  0.565217     48.000000
 -0.086957  0.260870  0.608696     48.000000
 -0.130435  0.304348  0.652174     48.000000
  0.826087 -0.652174 -0.304348     48.000000
  0.782609 -0.608696 -0.260870     48.000000
  0.739130 -0.565217 -0.217391     48.000000
  0.695652 -0.521739 -0.173913     48.000000
  0.652174 -0.478261 -0.130435     48.000000
  0.608696 -0.434783 -0.086957     48.000000
  0.565217 -0.391304 -0.043478     48.000000
  0.521739 -0.347826  0.000000     24.000000
  0.000000  0.173913  0.608696     24.000000
 -0.043478  0.217391  0.652174     48.000000
 -0.086957  0.260870  0.695652     48.000000
  0.869565 -0.695652 -0.260870     48.000000
  0.826087 -0.652174 -0.217391     48.000000
  0.782609 -0.608696 -0.173913     48.000000
  0.739130 -0.565217 -0.130435     48.000000
  0.695652 -0.521739 -0.086957     48.000000
  0.652174 -0.478261 -0.043478     48.000000
  0.608696 -0.434783 -0.000000     24.000000
  0.000000  0.173913  0.695652     24.000000
 -0.043478  0.217391  0.739130     48.000000
  0.913043 -0.739130 -0.217391     48.000000
  0.869565 -0.695652 -0.173913     48.000000
  0.826087 -0.652174 -0.130435     48.000000
  0.782609 -0.608696 -0.086957     48.000000
  0.739130 -0.565217 -0.043478     48.000000
  0.695652 -0.521739 -0.000000     24.000000
 -0.000000  0.173913  0.782609     24.000000
  0.956522 -0.782609 -0.173913     48.000000
  0.913043 -0.739130 -0.130435     48.000000
  0.869565 -0.695652 -0.086957     48.000000
  0.826087 -0.652174 -0.043478     48.000000
  0.782609 -0.608696 -0.000000     24.000000
  1.000000 -0.826087 -0.130435     24.000000
  0.956522 -0.782609 -0.086957     48.000000
  0.913043 -0.739130 -0.043478     48.000000
  0.869565 -0.695652 -0.000000     24.000000
  1.000000 -0.826087 -0.043478     24.000000
  0.956522 -0.782609  0.000000     24.000000
 -0.000000  0.260870  0.521739     24.000000
 -0.043478  0.304348  0.565217     48.000000
 -0.086957  0.347826  0.608696     48.000000
  0.869565 -0.608696 -0.347826     48.000000
  0.826087 -0.565217 -0.304348     48.000000
  0.782609 -0.521739 -0.260870     48.000000
  0.000000  0.260870  0.608696     24.000000
 -0.043478  0.304348  0.652174     48.000000
  0.913043 -0.652174 -0.304348     48.000000
  0.869565 -0.608696 -0.260870     48.000000
  0.826087 -0.565217 -0.217391     48.000000
  0.782609 -0.521739 -0.173913     48.000000
  0.739130 -0.478261 -0.130435     48.000000
  0.695652 -0.434783 -0.086957     48.000000
  0.652174 -0.391304 -0.043478     48.000000
  0.608696 -0.347826  0.000000     24.000000
  0.000000  0.260870  0.695652     24.000000
  0.956522 -0.695652 -0.260870     48.000000
  0.913043 -0.652174 -0.217391     48.000000
  0.869565 -0.608696 -0.173913     48.000000
  0.826087 -0.565217 -0.130435     48.000000
  0.782609 -0.521739 -0.086957     48.000000
  0.739130 -0.478261 -0.043478     48.000000
  0.695652 -0.434783  0.000000     24.000000
  1.000000 -0.739130 -0.217391     24.000000
  0.956522 -0.695652 -0.173913     48.000000
  0.913043 -0.652174 -0.130435     48.000000
  0.869565 -0.608696 -0.086957     48.000000
  0.826087 -0.565217 -0.043478     48.000000
  0.782609 -0.521739 -0.000000     24.000000
  1.000000 -0.739130 -0.130435     24.000000
  0.956522 -0.695652 -0.086957     48.000000
  0.913043 -0.652174 -0.043478     48.000000
  0.869565 -0.608696  0.000000     24.000000
  1.000000 -0.739130 -0.043478     24.000000
  0.956522 -0.695652  0.000000     24.000000
  1.000000 -0.652174 -0.304348     24.000000
  0.956522 -0.608696 -0.260870     48.000000
  0.913043 -0.565217 -0.217391     48.000000
  0.869565 -0.521739 -0.173913     48.000000
  1.000000 -0.652174 -0.217391     24.000000
  0.956522 -0.608696 -0.173913     48.000000
  0.913043 -0.565217 -0.130435     48.000000
  0.869565 -0.521739 -0.086957     48.000000
  0.826087 -0.478261 -0.043478     48.000000
  0.782609 -0.434783 -0.000000     24.000000
  1.000000 -0.652174 -0.130435     24.000000
  0.956522 -0.608696 -0.086957     48.000000
  0.913043 -0.565217 -0.043478     48.000000
  0.869565 -0.521739  0.000000     24.000000
  1.000000 -0.652174 -0.043478     24.000000
  0.956522 -0.608696  0.000000     24.000000
  1.000000 -0.565217 -0.130435     24.000000
  0.956522 -0.521739 -0.086957     48.000000
  1.000000 -0.565217 -0.043478     24.000000
  0.956522 -0.521739  0.000000     24.000000
 


--------------------------------------------------------------------------------------------------------




 Dimension of arrays:
   k-points           NKPTS =    364   k-points in BZ     NKDIM =    364   number of bands    NBANDS=      8
   number of dos      NEDOS =    301   number of ions     NIONS =      2
   non local maximal  LDIM  =      4   non local SUM 2l+1 LMDIM =      8
   total plane-waves  NPLWV =  64000
   max r-space proj   IRMAX =      1   max aug-charges    IRDMAX= 328533
   dimension x,y,z NGX =    40 NGY =   40 NGZ =   40
   dimension x,y,z NGXF=    80 NGYF=   80 NGZF=   80
   support grid    NGXF=   160 NGYF=  160 NGZF=  160
   ions per type =               2
   NGX,Y,Z   is equivalent  to a cutoff of  15.86, 15.86, 15.86 a.u.
   NGXF,Y,Z  is equivalent  to a cutoff of  31.72, 31.72, 31.72 a.u.

 SYSTEM =  Si                                      
 POSCAR =  Unknown                                 

 Startparameter for this run:
   NWRITE =      2    write-flag & timer
   PREC   = accura    normal or accurate (medium, high low for compatibility)
   ISTART =      0    job   : 0-new  1-cont  2-samecut
   ICHARG =      2    charge: 1-file 2-atom 10-const
   ISPIN  =      1    spin polarized calculation?
   LNONCOLLINEAR =      F non collinear calculations
   LSORBIT =      F    spin-orbit coupling
   INIWAV =      1    electr: 0-lowe 1-rand  2-diag
   LASPH  =      T    aspherical Exc in radial PAW
   METAGGA=      F    non-selfconsistent MetaGGA calc.

 Electronic Relaxation 1
   ENCUT  =  800.0 eV  58.80 Ry    7.67 a.u.   9.67  9.67  9.67*2*pi/ulx,y,z
   ENINI  =  800.0     initial cutoff
   ENAUG  =  900.0 eV  augmentation charge cutoff
   NELM   =    200;   NELMIN=  6; NELMDL=  0     # of ELM steps 
   EDIFF  = 0.1E-06   stopping-criterion for ELM
   LREAL  =      F    real-space projection
   NLSPLINE    = F    spline interpolate recip. space projectors
   LCOMPAT=      F    compatible to vasp.4.4
   GGA_COMPAT  = T    GGA compatible to vasp.4.4-vasp.4.6
   LMAXPAW     = -100 max onsite density
   LMAXMIX     =    4 max onsite mixed and CHGCAR
   VOSKOWN=      0    Vosko Wilk Nusair interpolation
   ROPT   =    0.00000
 Ionic relaxation
   EDIFFG = 0.1E-05   stopping-criterion for IOM
   NSW    =      0    number of steps for IOM
   NBLOCK =      1;   KBLOCK =      1    inner block; outer block 
   IBRION =     -1    ionic relax: 0-MD 1-quasi-New 2-CG
   NFREE  =      0    steps in history (QN), initial steepest desc. (CG)
   ISIF   =      2    stress and relaxation
   IWAVPR =     10    prediction:  0-non 1-charg 2-wave 3-comb
   ISYM   =      2    0-nonsym 1-usesym 2-fastsym
   LCORR  =      T    Harris-Foulkes like correction to forces

   POTIM  = 0.5000    time-step for ionic-motion
   TEIN   =    0.0    initial temperature
   TEBEG  =    0.0;   TEEND  =   0.0 temperature during run
   SMASS  =  -3.00    Nose mass-parameter (am)
   estimated Nose-frequenzy (Omega)   =  0.10E-29 period in steps = 0.13E+47 mass=  -0.402E-27a.u.
   SCALEE = 1.0000    scale energy and forces
   NPACO  =    256;   APACO  = 16.0  distance and # of slots for P.C.
   PSTRESS=    0.0 pullay stress

  Mass of Ions in am
   POMASS =  28.09
  Ionic Valenz
   ZVAL   =   4.00
  Atomic Wigner-Seitz radii
   RWIGS  =  -1.00
  virtual crystal weights 
   VCA    =   1.00
   NELECT =       8.0000    total number of electrons
   NUPDOWN=      -1.0000    fix difference up-down

 DOS related values:
   EMIN   =  10.00;   EMAX   =-10.00  energy-range for DOS
   EFERMI =   0.00
   ISMEAR =    -5;   SIGMA  =   0.20  broadening in eV -4-tet -1-fermi 0-gaus

 Electronic relaxation 2 (details)
   IALGO  =     38    algorithm
   LDIAG  =      T    sub-space diagonalisation (order eigenvalues)
   LSUBROT=      F    optimize rotation matrix (better conditioning)
   TURBO    =      0    0=normal 1=particle mesh
   IRESTART =      0    0=no restart 2=restart with 2 vectors
   NREBOOT  =      0    no. of reboots
   NMIN     =      0    reboot dimension
   EREF     =   0.00    reference energy to select bands
   IMIX   =      4    mixing-type and parameters
     AMIX     =   0.40;   BMIX     =  1.00
     AMIX_MAG =   1.60;   BMIX_MAG =  1.00
     AMIN     =   0.10
     WC   =   100.;   INIMIX=   1;  MIXPRE=   1;  MAXMIX= -45

 Intra band minimization:
   WEIMIN = 0.0000     energy-eigenvalue tresh-hold
   EBREAK =  0.31E-08  absolut break condition
   DEPER  =   0.30     relativ break condition  

   TIME   =   0.40     timestep for ELM

  volume/ion in A,a.u.               =      26.07       175.90
  Fermi-wavevector in a.u.,A,eV,Ry     =   0.876469  1.656287 10.451978  0.768199
  Thomas-Fermi vector in A             =   1.996284
 
 Write flags
   LWAVE        =      F    write WAVECAR
   LDOWNSAMPLE  =      F    k-point downsampling of WAVECAR
   LCHARG       =      F    write CHGCAR
   LVTOT        =      F    write LOCPOT, total local potential
   LVHAR        =      F    write LOCPOT, Hartree potential only
   LELF         =      F    write electronic localiz. function (ELF)
   LORBIT       =     11    0 simple, 1 ext, 2 COOP (PROOUT), +10 PAW based schemes


 Dipole corrections
   LMONO  =      F    monopole corrections only (constant potential shift)
   LDIPOL =      F    correct potential (dipole corrections)
   IDIPOL =      0    1-x, 2-y, 3-z, 4-all directions 
   EPSILON=  1.0000000 bulk dielectric constant

 Exchange correlation treatment:
   GGA     =    PE    GGA type
   LEXCH   =     8    internal setting for exchange type
   VOSKOWN=      0    Vosko Wilk Nusair interpolation
   LHFCALC =     F    Hartree Fock is set to
   LHFONE  =     F    Hartree Fock one center treatment
   AEXX    =    0.0000 exact exchange contribution

 Linear response parameters
   LEPSILON=     F    determine dielectric tensor
   LRPA    =     F    only Hartree local field effects (RPA)
   LNABLA  =     F    use nabla operator in PAW spheres
   LVEL    =     F    velocity operator in full k-point grid
   LINTERFAST=   F  fast interpolation
   KINTER  =     0    interpolate to denser k-point grid
   CSHIFT  =0.1000    complex shift for real part using Kramers Kronig
   OMEGAMAX=  -1.0    maximum frequency
   DEG_THRESHOLD= 0.2000000E-02 threshold for treating states as degnerate
   RTIME   =   -0.100 relaxation time in fs
  (WPLASMAI=    0.000 imaginary part of plasma frequency in eV, 0.658/RTIME)
   DFIELD  = 0.0000000 0.0000000 0.0000000 field for delta impulse in time
 
 Orbital magnetization related:
   ORBITALMAG=     F  switch on orbital magnetization
   LCHIMAG   =     F  perturbation theory with respect to B field
   DQ        =  0.001000  dq finite difference perturbation B field
   LLRAUG    =     F  two centre corrections for induced B field



--------------------------------------------------------------------------------------------------------


 Static calculation
 charge density and potential will be updated during run
 non-spin polarized calculation
 Variant of blocked Davidson
 Davidson routine will perform the subspace rotation
 perform sub-space diagonalisation
    after iterative eigenvector-optimisation
 modified Broyden-mixing scheme, WC =      100.0
 initial mixing is a Kerker type mixing with AMIX =  0.4000 and BMIX =      1.0000
 Hartree-type preconditioning will be used
 using additional bands            4
 reciprocal scheme for non local part
 use partial core corrections
 calculate Harris-corrections to forces 
   (improved forces if not selfconsistent)
 use gradient corrections 
 use of overlap-Matrix (Vanderbilt PP)
 Fermi weights with tetrahedron method with Bloechl corrections


--------------------------------------------------------------------------------------------------------


  energy-cutoff  :      800.00
  volume of cell :       52.13
      direct lattice vectors                 reciprocal lattice vectors
     0.000000000  2.965000000  2.965000000    -0.168634064  0.168634064  0.168634064
     2.965000000  0.000000000  2.965000000     0.168634064 -0.168634064  0.168634064
     2.965000000  2.965000000  0.000000000     0.168634064  0.168634064 -0.168634064

  length of vectors
     4.193143212  4.193143212  4.193143212     0.292082767  0.292082767  0.292082767


 
 k-points in units of 2pi/SCALE and weight: read from INCAR                         
   0.00000000  0.00000000  0.00000000       0.000
  -0.04347826  0.04347826  0.04347826       0.001
  -0.08695652  0.08695652  0.08695652       0.001
  -0.13043478  0.13043478  0.13043478       0.001
  -0.17391304  0.17391304  0.17391304       0.001
  -0.21739130  0.21739130  0.21739130       0.001
  -0.26086957  0.26086957  0.26086957       0.001
  -0.30434783  0.30434783  0.30434783       0.001
  -0.34782609  0.34782609  0.34782609       0.001
  -0.39130435  0.39130435  0.39130435       0.001
  -0.43478261  0.43478261  0.43478261       0.001
  -0.47826087  0.47826087  0.47826087       0.001
   0.00000000  0.00000000  0.08695652       0.000
  -0.04347826  0.04347826  0.13043478       0.002
  -0.08695652  0.08695652  0.17391304       0.002
  -0.13043478  0.13043478  0.21739130       0.002
  -0.17391304  0.17391304  0.26086957       0.002
  -0.21739130  0.21739130  0.30434783       0.002
  -0.26086957  0.26086957  0.34782609       0.002
  -0.30434783  0.30434783  0.39130435       0.002
  -0.34782609  0.34782609  0.43478261       0.002
  -0.39130435  0.39130435  0.47826087       0.002
  -0.43478261  0.43478261  0.52173913       0.002
   0.52173913 -0.52173913 -0.43478261       0.002
   0.47826087 -0.47826087 -0.39130435       0.002
   0.43478261 -0.43478261 -0.34782609       0.002
   0.39130435 -0.39130435 -0.30434783       0.002
   0.34782609 -0.34782609 -0.26086957       0.002
   0.30434783 -0.30434783 -0.21739130       0.002
   0.26086957 -0.26086957 -0.17391304       0.002
   0.21739130 -0.21739130 -0.13043478       0.002
   0.17391304 -0.17391304 -0.08695652       0.002
   0.13043478 -0.13043478 -0.04347826       0.002
   0.08695652 -0.08695652  0.00000000       0.001
   0.00000000  0.00000000  0.17391304       0.000
  -0.04347826  0.04347826  0.21739130       0.002
  -0.08695652  0.08695652  0.26086957       0.002
  -0.13043478  0.13043478  0.30434783       0.002
  -0.17391304  0.17391304  0.34782609       0.002
  -0.21739130  0.21739130  0.39130435       0.002
  -0.26086957  0.26086957  0.43478261       0.002
  -0.30434783  0.30434783  0.47826087       0.002
  -0.34782609  0.34782609  0.52173913       0.002
  -0.39130435  0.39130435  0.56521739       0.002
   0.56521739 -0.56521739 -0.39130435       0.002
   0.52173913 -0.52173913 -0.34782609       0.002
   0.47826087 -0.47826087 -0.30434783       0.002
   0.43478261 -0.43478261 -0.26086957       0.002
   0.39130435 -0.39130435 -0.21739130       0.002
   0.34782609 -0.34782609 -0.17391304       0.002
   0.30434783 -0.30434783 -0.13043478       0.002
   0.26086957 -0.26086957 -0.08695652       0.002
   0.21739130 -0.21739130 -0.04347826       0.002
   0.17391304 -0.17391304  0.00000000       0.001
   0.00000000  0.00000000  0.26086957       0.000
  -0.04347826  0.04347826  0.30434783       0.002
  -0.08695652  0.08695652  0.34782609       0.002
  -0.13043478  0.13043478  0.39130435       0.002
  -0.17391304  0.17391304  0.43478261       0.002
  -0.21739130  0.21739130  0.47826087       0.002
  -0.26086957  0.26086957  0.52173913       0.002
  -0.30434783  0.30434783  0.56521739       0.002
  -0.34782609  0.34782609  0.60869565       0.002
   0.60869565 -0.60869565 -0.34782609       0.002
   0.56521739 -0.56521739 -0.30434783       0.002
   0.52173913 -0.52173913 -0.26086957       0.002
   0.47826087 -0.47826087 -0.21739130       0.002
   0.43478261 -0.43478261 -0.17391304       0.002
   0.39130435 -0.39130435 -0.13043478       0.002
   0.34782609 -0.34782609 -0.08695652       0.002
   0.30434783 -0.30434783 -0.04347826       0.002
   0.26086957 -0.26086957  0.00000000       0.001
   0.00000000  0.00000000  0.34782609       0.000
  -0.04347826  0.04347826  0.39130435       0.002
  -0.08695652  0.08695652  0.43478261       0.002
  -0.13043478  0.13043478  0.47826087       0.002
  -0.17391304  0.17391304  0.52173913       0.002
  -0.21739130  0.21739130  0.56521739       0.002
  -0.26086957  0.26086957  0.60869565       0.002
  -0.30434783  0.30434783  0.65217391       0.002
   0.65217391 -0.65217391 -0.30434783       0.002
   0.60869565 -0.60869565 -0.26086957       0.002
   0.56521739 -0.56521739 -0.21739130       0.002
   0.52173913 -0.52173913 -0.17391304       0.002
   0.47826087 -0.47826087 -0.13043478       0.002
   0.43478261 -0.43478261 -0.08695652       0.002
   0.39130435 -0.39130435 -0.04347826       0.002
   0.34782609 -0.34782609  0.00000000       0.001
   0.00000000  0.00000000  0.43478261       0.000
  -0.04347826  0.04347826  0.47826087       0.002
  -0.08695652  0.08695652  0.52173913       0.002
  -0.13043478  0.13043478  0.56521739       0.002
  -0.17391304  0.17391304  0.60869565       0.002
  -0.21739130  0.21739130  0.65217391       0.002
  -0.26086957  0.26086957  0.69565217       0.002
   0.69565217 -0.69565217 -0.26086957       0.002
   0.65217391 -0.65217391 -0.21739130       0.002
   0.60869565 -0.60869565 -0.17391304       0.002
   0.56521739 -0.56521739 -0.13043478       0.002
   0.52173913 -0.52173913 -0.08695652       0.002
   0.47826087 -0.47826087 -0.04347826       0.002
   0.43478261 -0.43478261  0.00000000       0.001
   0.00000000  0.00000000  0.52173913       0.000
  -0.04347826  0.04347826  0.56521739       0.002
  -0.08695652  0.08695652  0.60869565       0.002
  -0.13043478  0.13043478  0.65217391       0.002
  -0.17391304  0.17391304  0.69565217       0.002
  -0.21739130  0.21739130  0.73913043       0.002
   0.73913043 -0.73913043 -0.21739130       0.002
   0.69565217 -0.69565217 -0.17391304       0.002
   0.65217391 -0.65217391 -0.13043478       0.002
   0.60869565 -0.60869565 -0.08695652       0.002
   0.56521739 -0.56521739 -0.04347826       0.002
   0.52173913 -0.52173913  0.00000000       0.001
   0.00000000  0.00000000  0.60869565       0.000
  -0.04347826  0.04347826  0.65217391       0.002
  -0.08695652  0.08695652  0.69565217       0.002
  -0.13043478  0.13043478  0.73913043       0.002
  -0.17391304  0.17391304  0.78260870       0.002
   0.78260870 -0.78260870 -0.17391304       0.002
   0.73913043 -0.73913043 -0.13043478       0.002
   0.69565217 -0.69565217 -0.08695652       0.002
   0.65217391 -0.65217391 -0.04347826       0.002
   0.60869565 -0.60869565  0.00000000       0.001
   0.00000000  0.00000000  0.69565217       0.000
  -0.04347826  0.04347826  0.73913043       0.002
  -0.08695652  0.08695652  0.78260870       0.002
  -0.13043478  0.13043478  0.82608696       0.002
   0.82608696 -0.82608696 -0.13043478       0.002
   0.78260870 -0.78260870 -0.08695652       0.002
   0.73913043 -0.73913043 -0.04347826       0.002
   0.69565217 -0.69565217  0.00000000       0.001
   0.00000000  0.00000000  0.78260870       0.000
  -0.04347826  0.04347826  0.82608696       0.002
  -0.08695652  0.08695652  0.86956522       0.002
   0.86956522 -0.86956522 -0.08695652       0.002
   0.82608696 -0.82608696 -0.04347826       0.002
   0.78260870 -0.78260870  0.00000000       0.001
   0.00000000  0.00000000  0.86956522       0.000
  -0.04347826  0.04347826  0.91304348       0.002
   0.91304348 -0.91304348 -0.04347826       0.002
   0.86956522 -0.86956522  0.00000000       0.001
   0.00000000  0.00000000  0.95652174       0.000
   0.95652174 -0.95652174  0.00000000       0.001
   0.00000000  0.08695652  0.17391304       0.002
  -0.04347826  0.13043478  0.21739130       0.004
  -0.08695652  0.17391304  0.26086957       0.004
  -0.13043478  0.21739130  0.30434783       0.004
  -0.17391304  0.26086957  0.34782609       0.004
  -0.21739130  0.30434783  0.39130435       0.004
  -0.26086957  0.34782609  0.43478261       0.004
  -0.30434783  0.39130435  0.47826087       0.004
  -0.34782609  0.43478261  0.52173913       0.004
   0.60869565 -0.52173913 -0.43478261       0.004
  -0.00000000  0.08695652  0.26086957       0.002
  -0.04347826  0.13043478  0.30434783       0.004
  -0.08695652  0.17391304  0.34782609       0.004
  -0.13043478  0.21739130  0.39130435       0.004
  -0.17391304  0.26086957  0.43478261       0.004
  -0.21739130  0.30434783  0.47826087       0.004
  -0.26086957  0.34782609  0.52173913       0.004
  -0.30434783  0.39130435  0.56521739       0.004
   0.65217391 -0.56521739 -0.39130435       0.004
   0.60869565 -0.52173913 -0.34782609       0.004
   0.56521739 -0.47826087 -0.30434783       0.004
   0.52173913 -0.43478261 -0.26086957       0.004
   0.47826087 -0.39130435 -0.21739130       0.004
   0.43478261 -0.34782609 -0.17391304       0.004
   0.39130435 -0.30434783 -0.13043478       0.004
   0.34782609 -0.26086957 -0.08695652       0.004
   0.30434783 -0.21739130 -0.04347826       0.004
   0.26086957 -0.17391304  0.00000000       0.002
  -0.00000000  0.08695652  0.34782609       0.002
  -0.04347826  0.13043478  0.39130435       0.004
  -0.08695652  0.17391304  0.43478261       0.004
  -0.13043478  0.21739130  0.47826087       0.004
  -0.17391304  0.26086957  0.52173913       0.004
  -0.21739130  0.30434783  0.56521739       0.004
  -0.26086957  0.34782609  0.60869565       0.004
   0.69565217 -0.60869565 -0.34782609       0.004
   0.65217391 -0.56521739 -0.30434783       0.004
   0.60869565 -0.52173913 -0.26086957       0.004
   0.56521739 -0.47826087 -0.21739130       0.004
   0.52173913 -0.43478261 -0.17391304       0.004
   0.47826087 -0.39130435 -0.13043478       0.004
   0.43478261 -0.34782609 -0.08695652       0.004
   0.39130435 -0.30434783 -0.04347826       0.004
   0.34782609 -0.26086957 -0.00000000       0.002
  -0.00000000  0.08695652  0.43478261       0.002
  -0.04347826  0.13043478  0.47826087       0.004
  -0.08695652  0.17391304  0.52173913       0.004
  -0.13043478  0.21739130  0.56521739       0.004
  -0.17391304  0.26086957  0.60869565       0.004
  -0.21739130  0.30434783  0.65217391       0.004
   0.73913043 -0.65217391 -0.30434783       0.004
   0.69565217 -0.60869565 -0.26086957       0.004
   0.65217391 -0.56521739 -0.21739130       0.004
   0.60869565 -0.52173913 -0.17391304       0.004
   0.56521739 -0.47826087 -0.13043478       0.004
   0.52173913 -0.43478261 -0.08695652       0.004
   0.47826087 -0.39130435 -0.04347826       0.004
   0.43478261 -0.34782609  0.00000000       0.002
   0.00000000  0.08695652  0.52173913       0.002
  -0.04347826  0.13043478  0.56521739       0.004
  -0.08695652  0.17391304  0.60869565       0.004
  -0.13043478  0.21739130  0.65217391       0.004
  -0.17391304  0.26086957  0.69565217       0.004
   0.78260870 -0.69565217 -0.26086957       0.004
   0.73913043 -0.65217391 -0.21739130       0.004
   0.69565217 -0.60869565 -0.17391304       0.004
   0.65217391 -0.56521739 -0.13043478       0.004
   0.60869565 -0.52173913 -0.08695652       0.004
   0.56521739 -0.47826087 -0.04347826       0.004
   0.52173913 -0.43478261  0.00000000       0.002
  -0.00000000  0.08695652  0.60869565       0.002
  -0.04347826  0.13043478  0.65217391       0.004
  -0.08695652  0.17391304  0.69565217       0.004
  -0.13043478  0.21739130  0.73913043       0.004
   0.82608696 -0.73913043 -0.21739130       0.004
   0.78260870 -0.69565217 -0.17391304       0.004
   0.73913043 -0.65217391 -0.13043478       0.004
   0.69565217 -0.60869565 -0.08695652       0.004
   0.65217391 -0.56521739 -0.04347826       0.004
   0.60869565 -0.52173913 -0.00000000       0.002
  -0.00000000  0.08695652  0.69565217       0.002
  -0.04347826  0.13043478  0.73913043       0.004
  -0.08695652  0.17391304  0.78260870       0.004
   0.86956522 -0.78260870 -0.17391304       0.004
   0.82608696 -0.73913043 -0.13043478       0.004
   0.78260870 -0.69565217 -0.08695652       0.004
   0.73913043 -0.65217391 -0.04347826       0.004
   0.69565217 -0.60869565  0.00000000       0.002
   0.00000000  0.08695652  0.78260870       0.002
  -0.04347826  0.13043478  0.82608696       0.004
   0.91304348 -0.82608696 -0.13043478       0.004
   0.86956522 -0.78260870 -0.08695652       0.004
   0.82608696 -0.73913043 -0.04347826       0.004
   0.78260870 -0.69565217 -0.00000000       0.002
  -0.00000000  0.08695652  0.86956522       0.002
   0.95652174 -0.86956522 -0.08695652       0.004
   0.91304348 -0.82608696 -0.04347826       0.004
   0.86956522 -0.78260870  0.00000000       0.002
   1.00000000 -0.91304348 -0.04347826       0.002
   0.95652174 -0.86956522  0.00000000       0.002
   0.00000000  0.17391304  0.34782609       0.002
  -0.04347826  0.21739130  0.39130435       0.004
  -0.08695652  0.26086957  0.43478261       0.004
  -0.13043478  0.30434783  0.47826087       0.004
  -0.17391304  0.34782609  0.52173913       0.004
  -0.21739130  0.39130435  0.56521739       0.004
   0.73913043 -0.56521739 -0.39130435       0.004
   0.69565217 -0.52173913 -0.34782609       0.004
   0.00000000  0.17391304  0.43478261       0.002
  -0.04347826  0.21739130  0.47826087       0.004
  -0.08695652  0.26086957  0.52173913       0.004
  -0.13043478  0.30434783  0.56521739       0.004
  -0.17391304  0.34782609  0.60869565       0.004
   0.78260870 -0.60869565 -0.34782609       0.004
   0.73913043 -0.56521739 -0.30434783       0.004
   0.69565217 -0.52173913 -0.26086957       0.004
   0.65217391 -0.47826087 -0.21739130       0.004
   0.60869565 -0.43478261 -0.17391304       0.004
   0.56521739 -0.39130435 -0.13043478       0.004
   0.52173913 -0.34782609 -0.08695652       0.004
   0.47826087 -0.30434783 -0.04347826       0.004
   0.43478261 -0.26086957 -0.00000000       0.002
   0.00000000  0.17391304  0.52173913       0.002
  -0.04347826  0.21739130  0.56521739       0.004
  -0.08695652  0.26086957  0.60869565       0.004
  -0.13043478  0.30434783  0.65217391       0.004
   0.82608696 -0.65217391 -0.30434783       0.004
   0.78260870 -0.60869565 -0.26086957       0.004
   0.73913043 -0.56521739 -0.21739130       0.004
   0.69565217 -0.52173913 -0.17391304       0.004
   0.65217391 -0.47826087 -0.13043478       0.004
   0.60869565 -0.43478261 -0.08695652       0.004
   0.56521739 -0.39130435 -0.04347826       0.004
   0.52173913 -0.34782609  0.00000000       0.002
   0.00000000  0.17391304  0.60869565       0.002
  -0.04347826  0.21739130  0.65217391       0.004
  -0.08695652  0.26086957  0.69565217       0.004
   0.86956522 -0.69565217 -0.26086957       0.004
   0.82608696 -0.65217391 -0.21739130       0.004
   0.78260870 -0.60869565 -0.17391304       0.004
   0.73913043 -0.56521739 -0.13043478       0.004
   0.69565217 -0.52173913 -0.08695652       0.004
   0.65217391 -0.47826087 -0.04347826       0.004
   0.60869565 -0.43478261 -0.00000000       0.002
   0.00000000  0.17391304  0.69565217       0.002
  -0.04347826  0.21739130  0.73913043       0.004
   0.91304348 -0.73913043 -0.21739130       0.004
   0.86956522 -0.69565217 -0.17391304       0.004
   0.82608696 -0.65217391 -0.13043478       0.004
   0.78260870 -0.60869565 -0.08695652       0.004
   0.73913043 -0.56521739 -0.04347826       0.004
   0.69565217 -0.52173913 -0.00000000       0.002
  -0.00000000  0.17391304  0.78260870       0.002
   0.95652174 -0.78260870 -0.17391304       0.004
   0.91304348 -0.73913043 -0.13043478       0.004
   0.86956522 -0.69565217 -0.08695652       0.004
   0.82608696 -0.65217391 -0.04347826       0.004
   0.78260870 -0.60869565 -0.00000000       0.002
   1.00000000 -0.82608696 -0.13043478       0.002
   0.95652174 -0.78260870 -0.08695652       0.004
   0.91304348 -0.73913043 -0.04347826       0.004
   0.86956522 -0.69565217 -0.00000000       0.002
   1.00000000 -0.82608696 -0.04347826       0.002
   0.95652174 -0.78260870  0.00000000       0.002
  -0.00000000  0.26086957  0.52173913       0.002
  -0.04347826  0.30434783  0.56521739       0.004
  -0.08695652  0.34782609  0.60869565       0.004
   0.86956522 -0.60869565 -0.34782609       0.004
   0.82608696 -0.56521739 -0.30434783       0.004
   0.78260870 -0.52173913 -0.26086957       0.004
   0.00000000  0.26086957  0.60869565       0.002
  -0.04347826  0.30434783  0.65217391       0.004
   0.91304348 -0.65217391 -0.30434783       0.004
   0.86956522 -0.60869565 -0.26086957       0.004
   0.82608696 -0.56521739 -0.21739130       0.004
   0.78260870 -0.52173913 -0.17391304       0.004
   0.73913043 -0.47826087 -0.13043478       0.004
   0.69565217 -0.43478261 -0.08695652       0.004
   0.65217391 -0.39130435 -0.04347826       0.004
   0.60869565 -0.34782609  0.00000000       0.002
   0.00000000  0.26086957  0.69565217       0.002
   0.95652174 -0.69565217 -0.26086957       0.004
   0.91304348 -0.65217391 -0.21739130       0.004
   0.86956522 -0.60869565 -0.17391304       0.004
   0.82608696 -0.56521739 -0.13043478       0.004
   0.78260870 -0.52173913 -0.08695652       0.004
   0.73913043 -0.47826087 -0.04347826       0.004
   0.69565217 -0.43478261  0.00000000       0.002
   1.00000000 -0.73913043 -0.21739130       0.002
   0.95652174 -0.69565217 -0.17391304       0.004
   0.91304348 -0.65217391 -0.13043478       0.004
   0.86956522 -0.60869565 -0.08695652       0.004
   0.82608696 -0.56521739 -0.04347826       0.004
   0.78260870 -0.52173913 -0.00000000       0.002
   1.00000000 -0.73913043 -0.13043478       0.002
   0.95652174 -0.69565217 -0.08695652       0.004
   0.91304348 -0.65217391 -0.04347826       0.004
   0.86956522 -0.60869565  0.00000000       0.002
   1.00000000 -0.73913043 -0.04347826       0.002
   0.95652174 -0.69565217  0.00000000       0.002
   1.00000000 -0.65217391 -0.30434783       0.002
   0.95652174 -0.60869565 -0.26086957       0.004
   0.91304348 -0.56521739 -0.21739130       0.004
   0.86956522 -0.52173913 -0.17391304       0.004
   1.00000000 -0.65217391 -0.21739130       0.002
   0.95652174 -0.60869565 -0.17391304       0.004
   0.91304348 -0.56521739 -0.13043478       0.004
   0.86956522 -0.52173913 -0.08695652       0.004
   0.82608696 -0.47826087 -0.04347826       0.004
   0.78260870 -0.43478261 -0.00000000       0.002
   1.00000000 -0.65217391 -0.13043478       0.002
   0.95652174 -0.60869565 -0.08695652       0.004
   0.91304348 -0.56521739 -0.04347826       0.004
   0.86956522 -0.52173913  0.00000000       0.002
   1.00000000 -0.65217391 -0.04347826       0.002
   0.95652174 -0.60869565  0.00000000       0.002
   1.00000000 -0.56521739 -0.13043478       0.002
   0.95652174 -0.52173913 -0.08695652       0.004
   1.00000000 -0.56521739 -0.04347826       0.002
   0.95652174 -0.52173913  0.00000000       0.002
 
 k-points in reciprocal lattice and weights: read from INCAR                         
   0.00000000  0.00000000  0.00000000       0.000
   0.04347826  0.00000000  0.00000000       0.001
   0.08695652  0.00000000  0.00000000       0.001
   0.13043478  0.00000000  0.00000000       0.001
   0.17391304  0.00000000  0.00000000       0.001
   0.21739130  0.00000000  0.00000000       0.001
   0.26086957  0.00000000  0.00000000       0.001
   0.30434783  0.00000000  0.00000000       0.001
   0.34782609  0.00000000  0.00000000       0.001
   0.39130435  0.00000000  0.00000000       0.001
   0.43478261  0.00000000  0.00000000       0.001
   0.47826087  0.00000000  0.00000000       0.001
   0.04347826  0.04347826  0.00000000       0.000
   0.08695652  0.04347826  0.00000000       0.002
   0.13043478  0.04347826  0.00000000       0.002
   0.17391304  0.04347826  0.00000000       0.002
   0.21739130  0.04347826  0.00000000       0.002
   0.26086957  0.04347826  0.00000000       0.002
   0.30434783  0.04347826  0.00000000       0.002
   0.34782609  0.04347826  0.00000000       0.002
   0.39130435  0.04347826  0.00000000       0.002
   0.43478261  0.04347826  0.00000000       0.002
   0.47826087  0.04347826  0.00000000       0.002
  -0.47826087  0.04347826  0.00000000       0.002
  -0.43478261  0.04347826  0.00000000       0.002
  -0.39130435  0.04347826  0.00000000       0.002
  -0.34782609  0.04347826  0.00000000       0.002
  -0.30434783  0.04347826  0.00000000       0.002
  -0.26086957  0.04347826  0.00000000       0.002
  -0.21739130  0.04347826  0.00000000       0.002
  -0.17391304  0.04347826  0.00000000       0.002
  -0.13043478  0.04347826  0.00000000       0.002
  -0.08695652  0.04347826  0.00000000       0.002
  -0.04347826  0.04347826  0.00000000       0.001
   0.08695652  0.08695652  0.00000000       0.000
   0.13043478  0.08695652  0.00000000       0.002
   0.17391304  0.08695652  0.00000000       0.002
   0.21739130  0.08695652  0.00000000       0.002
   0.26086957  0.08695652  0.00000000       0.002
   0.30434783  0.08695652  0.00000000       0.002
   0.34782609  0.08695652  0.00000000       0.002
   0.39130435  0.08695652  0.00000000       0.002
   0.43478261  0.08695652  0.00000000       0.002
   0.47826087  0.08695652  0.00000000       0.002
  -0.47826087  0.08695652  0.00000000       0.002
  -0.43478261  0.08695652  0.00000000       0.002
  -0.39130435  0.08695652  0.00000000       0.002
  -0.34782609  0.08695652  0.00000000       0.002
  -0.30434783  0.08695652  0.00000000       0.002
  -0.26086957  0.08695652  0.00000000       0.002
  -0.21739130  0.08695652  0.00000000       0.002
  -0.17391304  0.08695652  0.00000000       0.002
  -0.13043478  0.08695652  0.00000000       0.002
  -0.08695652  0.08695652  0.00000000       0.001
   0.13043478  0.13043478  0.00000000       0.000
   0.17391304  0.13043478  0.00000000       0.002
   0.21739130  0.13043478  0.00000000       0.002
   0.26086957  0.13043478  0.00000000       0.002
   0.30434783  0.13043478  0.00000000       0.002
   0.34782609  0.13043478  0.00000000       0.002
   0.39130435  0.13043478  0.00000000       0.002
   0.43478261  0.13043478  0.00000000       0.002
   0.47826087  0.13043478  0.00000000       0.002
  -0.47826087  0.13043478  0.00000000       0.002
  -0.43478261  0.13043478  0.00000000       0.002
  -0.39130435  0.13043478  0.00000000       0.002
  -0.34782609  0.13043478  0.00000000       0.002
  -0.30434783  0.13043478  0.00000000       0.002
  -0.26086957  0.13043478  0.00000000       0.002
  -0.21739130  0.13043478  0.00000000       0.002
  -0.17391304  0.13043478  0.00000000       0.002
  -0.13043478  0.13043478  0.00000000       0.001
   0.17391304  0.17391304  0.00000000       0.000
   0.21739130  0.17391304  0.00000000       0.002
   0.26086957  0.17391304  0.00000000       0.002
   0.30434783  0.17391304  0.00000000       0.002
   0.34782609  0.17391304  0.00000000       0.002
   0.39130435  0.17391304  0.00000000       0.002
   0.43478261  0.17391304  0.00000000       0.002
   0.47826087  0.17391304  0.00000000       0.002
  -0.47826087  0.17391304  0.00000000       0.002
  -0.43478261  0.17391304  0.00000000       0.002
  -0.39130435  0.17391304  0.00000000       0.002
  -0.34782609  0.17391304  0.00000000       0.002
  -0.30434783  0.17391304  0.00000000       0.002
  -0.26086957  0.17391304  0.00000000       0.002
  -0.21739130  0.17391304  0.00000000       0.002
  -0.17391304  0.17391304  0.00000000       0.001
   0.21739130  0.21739130  0.00000000       0.000
   0.26086957  0.21739130  0.00000000       0.002
   0.30434783  0.21739130  0.00000000       0.002
   0.34782609  0.21739130  0.00000000       0.002
   0.39130435  0.21739130  0.00000000       0.002
   0.43478261  0.21739130  0.00000000       0.002
   0.47826087  0.21739130  0.00000000       0.002
  -0.47826087  0.21739130  0.00000000       0.002
  -0.43478261  0.21739130  0.00000000       0.002
  -0.39130435  0.21739130  0.00000000       0.002
  -0.34782609  0.21739130  0.00000000       0.002
  -0.30434783  0.21739130  0.00000000       0.002
  -0.26086957  0.21739130  0.00000000       0.002
  -0.21739130  0.21739130  0.00000000       0.001
   0.26086957  0.26086957  0.00000000       0.000
   0.30434783  0.26086957  0.00000000       0.002
   0.34782609  0.26086957  0.00000000       0.002
   0.39130435  0.26086957  0.00000000       0.002
   0.43478261  0.26086957  0.00000000       0.002
   0.47826087  0.26086957  0.00000000       0.002
  -0.47826087  0.26086957  0.00000000       0.002
  -0.43478261  0.26086957  0.00000000       0.002
  -0.39130435  0.26086957  0.00000000       0.002
  -0.34782609  0.26086957  0.00000000       0.002
  -0.30434783  0.26086957  0.00000000       0.002
  -0.26086957  0.26086957  0.00000000       0.001
   0.30434783  0.30434783  0.00000000       0.000
   0.34782609  0.30434783  0.00000000       0.002
   0.39130435  0.30434783  0.00000000       0.002
   0.43478261  0.30434783  0.00000000       0.002
   0.47826087  0.30434783  0.00000000       0.002
  -0.47826087  0.30434783  0.00000000       0.002
  -0.43478261  0.30434783  0.00000000       0.002
  -0.39130435  0.30434783  0.00000000       0.002
  -0.34782609  0.30434783  0.00000000       0.002
  -0.30434783  0.30434783  0.00000000       0.001
   0.34782609  0.34782609  0.00000000       0.000
   0.39130435  0.34782609  0.00000000       0.002
   0.43478261  0.34782609  0.00000000       0.002
   0.47826087  0.34782609  0.00000000       0.002
[...]
      8       9.3514      0.00000

 k-point   331 :      -0.2609    0.3478    0.1304
  band No.  band energies     occupation 
      1      -5.0562      2.00000
      2      -2.8863      2.00000
      3       0.0873      2.00000
      4       1.3320      2.00000
      5       6.3592      0.00000
      6       7.4223      0.00000
      7       8.2631      0.00000
      8       9.9732      0.00000

 k-point   332 :      -0.2174    0.3478    0.1304
  band No.  band energies     occupation 
      1      -5.3093      2.00000
      2      -2.5877      2.00000
      3       0.1941      2.00000
      4       1.4810      2.00000
      5       6.4708      0.00000
      6       7.1522      0.00000
      7       7.9112      0.00000
      8       9.9194      0.00000

 k-point   333 :      -0.4783    0.3913    0.1304
  band No.  band energies     occupation 
      1      -5.1876      2.00000
      2      -2.7114      2.00000
      3       0.6050      2.00000
      4       1.0539      2.00000
      5       5.6001      0.00000
      6       6.1748      0.00000
      7       8.7492      0.00000
      8      10.7242      0.00000

 k-point   334 :      -0.4348    0.3913    0.1304
  band No.  band energies     occupation 
      1      -4.9228      2.00000
      2      -3.0192      2.00000
      3       0.4251      2.00000
      4       0.9468      2.00000
      5       5.8168      0.00000
      6       6.5006      0.00000
      7       8.6046      0.00000
      8      10.7763      0.00000

 k-point   335 :      -0.3913    0.3913    0.1304
  band No.  band energies     occupation 
      1      -4.6839      2.00000
      2      -3.2815      2.00000
      3       0.2446      2.00000
      4       0.9169      2.00000
      5       5.9131      0.00000
      6       7.0795      0.00000
      7       8.4662      0.00000
      8      10.3359      0.00000

 k-point   336 :      -0.3478    0.3913    0.1304
  band No.  band energies     occupation 
      1      -4.5481      2.00000
      2      -3.4232      2.00000
      3       0.0971      2.00000
      4       0.9522      2.00000
      5       6.0018      0.00000
      6       7.7706      0.00000
      7       8.3435      0.00000
      8       9.6400      0.00000

 k-point   337 :      -0.3043    0.3913    0.1304
  band No.  band energies     occupation 
      1      -4.6041      2.00000
      2      -3.3603      2.00000
      3       0.0097      2.00000
      4       1.0397      2.00000
      5       6.1097      0.00000
      6       8.1939      0.00000
      7       8.5547      0.00000
      8       8.9322      0.00000

 k-point   338 :      -0.2609    0.3913    0.1304
  band No.  band energies     occupation 
      1      -4.8048      2.00000
      2      -3.1470      2.00000
      3       0.0019      2.00000
      4       1.1697      2.00000
      5       6.2353      0.00000
      6       7.9505      0.00000
      7       8.4098      0.00000
      8       9.3385      0.00000

 k-point   339 :      -0.4348    0.4348    0.1304
  band No.  band energies     occupation 
      1      -4.7379      2.00000
      2      -3.2386      2.00000
      3       0.5600      2.00000
      4       0.8271      2.00000
      5       5.5944      0.00000
      6       5.9438      0.00000
      7       9.3574      0.00000
      8      11.0339      0.00000

 k-point   340 :      -0.3913    0.4348    0.1304
  band No.  band energies     occupation 
      1      -4.4796      2.00000
      2      -3.5051      2.00000
      3       0.3906      2.00000
      4       0.7611      2.00000
      5       5.7844      0.00000
      6       6.3628      0.00000
      7       9.2164      0.00000
      8      10.4892      0.00000

 k-point   341 :      -0.3478    0.4348    0.1304
  band No.  band energies     occupation 
      1      -4.3108      2.00000
      2      -3.6684      2.00000
      3       0.2003      2.00000
      4       0.8008      2.00000
      5       5.8754      0.00000
      6       7.0120      0.00000
      7       9.0798      0.00000
      8       9.7490      0.00000

 k-point   342 :      -0.3043    0.4348    0.1304
  band No.  band energies     occupation 
      1      -4.3836      2.00000
      2      -3.5853      2.00000
      3       0.0624      2.00000
      4       0.8987      2.00000
      5       5.9818      0.00000
      6       7.7484      0.00000
      7       8.8579      0.00000
      8       9.0988      0.00000

 k-point   343 :      -0.3913    0.4783    0.1304
  band No.  band energies     occupation 
      1      -4.2588      2.00000
      2      -3.7567      2.00000
      3       0.5806      2.00000
      4       0.6691      2.00000
      5       5.6491      0.00000
      6       5.7659      0.00000
      7       9.9980      0.00000
      8      10.6253      0.00000

 k-point   344 :      -0.3478    0.4783    0.1304
  band No.  band energies     occupation 
      1      -4.0990      2.00000
      2      -3.8998      2.00000
      3       0.3863      2.00000
      4       0.6913      2.00000
      5       5.7757      0.00000
      6       6.3127      0.00000
      7       9.8288      0.00000
      8       9.8989      0.00000

 k-point   345 :      -0.4783    0.3478    0.1739
  band No.  band energies     occupation 
      1      -5.4706      2.00000
      2      -2.3709      2.00000
      3       0.4335      2.00000
      4       1.4018      2.00000
      5       6.3670      0.00000
      6       6.8388      0.00000
      7       7.5951      0.00000
      8       9.9935      0.00000

 k-point   346 :      -0.4348    0.3478    0.1739
  band No.  band energies     occupation 
      1      -5.2089      2.00000
      2      -2.6984      2.00000
      3       0.2749      2.00000
      4       1.2592      2.00000
      5       6.5706      0.00000
      6       7.0365      0.00000
      7       7.6233      0.00000
      8      10.2114      0.00000

 k-point   347 :      -0.3913    0.3478    0.1739
  band No.  band energies     occupation 
      1      -4.9699      2.00000
      2      -2.9868      2.00000
      3       0.1748      2.00000
      4       1.1534      2.00000
      5       6.6268      0.00000
      6       7.0897      0.00000
      7       8.0596      0.00000
      8      10.0562      0.00000

 k-point   348 :      -0.3478    0.3478    0.1739
  band No.  band energies     occupation 
      1      -4.8126      2.00000
      2      -3.1706      2.00000
      3       0.1269      2.00000
      4       1.0973      2.00000
      5       6.6512      0.00000
      6       7.0553      0.00000
      7       8.7174      0.00000
      8       9.4354      0.00000

 k-point   349 :      -0.4348    0.3913    0.1739
  band No.  band energies     occupation 
      1      -5.0786      2.00000
      2      -2.8330      2.00000
      3       0.3513      2.00000
      4       1.0481      2.00000
      5       6.3064      0.00000
      6       6.7795      0.00000
      7       7.9093      0.00000
      8      10.5891      0.00000

 k-point   350 :      -0.3913    0.3913    0.1739
  band No.  band energies     occupation 
      1      -4.8231      2.00000
      2      -3.1181      2.00000
      3       0.2267      2.00000
      4       0.9225      2.00000
      5       6.5250      0.00000
      6       7.1947      0.00000
      7       7.7726      0.00000
      8      10.2401      0.00000

 k-point   351 :      -0.3478    0.3913    0.1739
  band No.  band energies     occupation 
      1      -4.6244      2.00000
      2      -3.3328      2.00000
      3       0.1357      2.00000
      4       0.8641      2.00000
      5       6.6214      0.00000
      6       7.5538      0.00000
      7       7.9358      0.00000
      8       9.5164      0.00000

 k-point   352 :      -0.3043    0.3913    0.1739
  band No.  band energies     occupation 
      1      -4.5764      2.00000
      2      -3.3828      2.00000
      3       0.0838      2.00000
      4       0.8778      2.00000
      5       6.7170      0.00000
      6       7.4739      0.00000
      7       8.6411      0.00000
      8       8.7662      0.00000

 k-point   353 :      -0.2609    0.3913    0.1739
  band No.  band energies     occupation 
      1      -4.7138      2.00000
      2      -3.2349      2.00000
      3       0.0820      2.00000
      4       0.9569      2.00000
      5       6.8244      0.00000
      6       7.3629      0.00000
      7       8.0864      0.00000
      8       9.4149      0.00000

 k-point   354 :      -0.2174    0.3913    0.1739
  band No.  band energies     occupation 
      1      -4.9486      2.00000
      2      -2.9813      2.00000
      3       0.1428      2.00000
      4       1.0894      2.00000
      5       6.9255      0.00000
      6       7.0980      0.00000
      7       7.6697      0.00000
      8      10.1353      0.00000

 k-point   355 :      -0.3913    0.4348    0.1739
  band No.  band energies     occupation 
      1      -4.6581      2.00000
      2      -3.2971      2.00000
      3       0.3394      2.00000
      4       0.7577      2.00000
      5       6.2975      0.00000
      6       6.6003      0.00000
      7       8.4514      0.00000
      8      10.3676      0.00000

 k-point   356 :      -0.3478    0.4348    0.1739
  band No.  band energies     occupation 
      1      -4.4236      2.00000
      2      -3.5344      2.00000
      3       0.2403      2.00000
      4       0.6681      2.00000
      5       6.4924      0.00000
      6       7.1157      0.00000
      7       8.3086      0.00000
      8       9.6134      0.00000

 k-point   357 :      -0.3043    0.4348    0.1739
  band No.  band energies     occupation 
      1      -4.3328      2.00000
      2      -3.6216      2.00000
      3       0.1361      2.00000
      4       0.6926      2.00000
      5       6.5953      0.00000
      6       7.8217      0.00000
      7       8.1831      0.00000
      8       8.8448      0.00000

 k-point   358 :      -0.2609    0.4348    0.1739
  band No.  band energies     occupation 
      1      -4.4739      2.00000
      2      -3.4754      2.00000
      3       0.0733      2.00000
      4       0.7974      2.00000
      5       6.7117      0.00000
      6       7.9455      0.00000
      7       8.2291      0.00000
      8       8.6145      0.00000

 k-point   359 :      -0.3478    0.4783    0.1739
  band No.  band energies     occupation 
      1      -4.2162      2.00000
      2      -3.7601      2.00000
      3       0.4016      2.00000
      4       0.5409      2.00000
      5       6.3437      0.00000
      6       6.4463      0.00000
      7       9.0719      0.00000
      8       9.7302      0.00000

 k-point   360 :      -0.3043    0.4783    0.1739
  band No.  band energies     occupation 
      1      -4.1143      2.00000
      2      -3.8488      2.00000
      3       0.2703      2.00000
      4       0.5563      2.00000
      5       6.4820      0.00000
      6       7.0774      0.00000
      7       8.9007      0.00000
      8       8.9825      0.00000

 k-point   361 :      -0.3478    0.4348    0.2174
  band No.  band energies     occupation 
      1      -4.5677      2.00000
      2      -3.3771      2.00000
      3       0.1696      2.00000
      4       0.7460      2.00000
      5       7.0899      0.00000
      6       7.2806      0.00000
      7       7.6509      0.00000
      8       9.5020      0.00000

 k-point   362 :      -0.3043    0.4348    0.2174
  band No.  band energies     occupation 
      1      -4.3719      2.00000
      2      -3.5748      2.00000
      3       0.1513      2.00000
      4       0.6434      2.00000
      5       7.2435      0.00000
      6       7.4549      0.00000
      7       7.9728      0.00000
      8       8.7118      0.00000

 k-point   363 :      -0.3043    0.4783    0.2174
  band No.  band energies     occupation 
      1      -4.1743      2.00000
      2      -3.7756      2.00000
      3       0.2790      2.00000
      4       0.4723      2.00000
      5       7.1310      0.00000
      6       7.2176      0.00000
      7       8.1668      0.00000
      8       8.8133      0.00000

 k-point   364 :      -0.2609    0.4783    0.2174
  band No.  band energies     occupation 
      1      -4.1392      2.00000
      2      -3.8057      2.00000
      3       0.2328      2.00000
      4       0.4778      2.00000
      5       7.2738      0.00000
      6       7.8774      0.00000
      7       8.0333      0.00000
      8       8.0927      0.00000


--------------------------------------------------------------------------------------------------------


 soft charge-density along one line, spin component           1
         0         1         2         3         4         5         6         7         8         9
 total charge-density along one line
 
 pseudopotential strength for first ion, spin component:           1
 18.498  25.808  -0.000  -0.000  -0.000  -0.000  -0.000  -0.000
 25.808  36.012  -0.000  -0.000  -0.000  -0.000  -0.000  -0.000
 -0.000  -0.000   4.192   0.000   0.000   7.816   0.000   0.000
 -0.000  -0.000   0.000   4.192   0.000   0.000   7.816   0.000
 -0.000  -0.000   0.000   0.000   4.192   0.000   0.000   7.816
 -0.000  -0.000   7.816   0.000   0.000  14.582   0.000   0.000
 -0.000  -0.000   0.000   7.816   0.000   0.000  14.582   0.000
 -0.000  -0.000   0.000   0.000   7.816   0.000   0.000  14.582
 total augmentation occupancy for first ion, spin component:           1
  6.772  -2.692  -0.000   0.000  -0.000   0.000   0.000  -0.000
 -2.692   1.142   0.000   0.000   0.000   0.000   0.000  -0.000
 -0.000  -0.000   2.959  -0.000   0.000  -0.742  -0.000  -0.000
 -0.000   0.000  -0.000   2.959  -0.000   0.000  -0.742  -0.000
 -0.000   0.000  -0.000   0.000   2.959  -0.000   0.000  -0.742
  0.000  -0.000  -0.742   0.000  -0.000   0.190   0.000  -0.000
  0.000  -0.000  -0.000  -0.742   0.000   0.000   0.190   0.000
 -0.000   0.000   0.000   0.000  -0.742  -0.000  -0.000   0.190


------------------------ aborting loop because EDIFF is reached ----------------------------------------


 


 total charge     
 
# of ion       s       p       d       tot
------------------------------------------
    1        0.759   0.799   0.000   1.558
    2        0.759   0.799   0.000   1.558
--------------------------------------------------
tot          1.518   1.597   0.000   3.116
 
    CHARGE:  cpu time    0.0613: real time    0.0615
    FORLOC:  cpu time    0.0006: real time    0.0006
    FORNL :  cpu time    0.1418: real time    0.1418
    STRESS:  cpu time    7.8642: real time    7.8645
    FORCOR:  cpu time    0.0572: real time    0.0572
    FORHAR:  cpu time    0.0031: real time    0.0031
    MIXING:  cpu time    0.0030: real time    0.0030
    OFIELD:  cpu time    0.0000: real time    0.0000

  FORCE on cell =-STRESS in cart. coord.  units (eV):
  Direction    XX          YY          ZZ          XY          YZ          ZX
  --------------------------------------------------------------------------------------
  Alpha Z     2.58292     2.58292     2.58292
  Ewald     -69.76394   -69.76394   -69.76394     0.00000     0.00000    -0.00000
  Hartree     6.03276     6.03276     6.03276     0.00000     0.00000     0.00000
  E(xc)     -23.05843   -23.12708   -23.21743     0.11702    -0.02996     0.04716
  Local     -32.85608   -32.85608   -32.85608     0.00000     0.00000     0.00000
  n-local    72.88971    74.44844    68.95228     1.77741    -0.99848     0.33434
  augment   -10.68472   -10.68472   -10.68472    -0.00000    -0.00000    -0.00000
  Kinetic    53.12060    52.34703    47.85856     3.51704    -1.13241     1.05214
  Fock        0.00000     0.00000     0.00000     0.00000     0.00000     0.00000
  -------------------------------------------------------------------------------------
  Total      -4.61784    -4.61784    -4.61784    -0.00000    -0.00000    -0.00000
  in kB    -141.92049  -141.92049  -141.92049    -0.00000    -0.00000    -0.00000
  external pressure =     -141.92 kB  Pullay stress =        0.00 kB


 VOLUME and BASIS-vectors are now :
 -----------------------------------------------------------------------------
  energy-cutoff  :      800.00
  volume of cell :       52.13
      direct lattice vectors                 reciprocal lattice vectors
     0.000000000  2.965000000  2.965000000    -0.168634064  0.168634064  0.168634064
     2.965000000  0.000000000  2.965000000     0.168634064 -0.168634064  0.168634064
     2.965000000  2.965000000  0.000000000     0.168634064  0.168634064 -0.168634064

  length of vectors
     4.193143212  4.193143212  4.193143212     0.292082767  0.292082767  0.292082767


 FORCES acting on ions
    electron-ion (+dipol)            ewald-force                    non-local-force                 convergence-correction
 -----------------------------------------------------------------------------------------------
   -.138E-06 -.138E-06 -.141E-06   -.891E-15 0.222E-15 -.190E-14   -.208E-16 0.312E-16 0.108E-15   -.661E-11 -.661E-11 -.660E-11
   0.138E-06 0.138E-06 0.141E-06   0.856E-15 -.156E-15 0.192E-14   -.278E-16 -.347E-16 -.555E-16   0.660E-11 0.661E-11 0.660E-11
 -----------------------------------------------------------------------------------------------
   0.688E-13 -.483E-13 -.486E-13   -.347E-16 0.659E-16 0.234E-16   -.486E-16 -.347E-17 0.520E-16   -.269E-14 -.261E-14 -.211E-14
 
 
 POSITION                                       TOTAL-FORCE (eV/Angst)
 -----------------------------------------------------------------------------------
      5.18875      5.18875      5.18875        -0.000000      0.000000      0.000000
      0.74125      0.74125      0.74125         0.000000     -0.000000     -0.000000
 -----------------------------------------------------------------------------------
    total drift:                                0.000000     -0.000000     -0.000000


--------------------------------------------------------------------------------------------------------



  FREE ENERGIE OF THE ION-ELECTRON SYSTEM (eV)
  ---------------------------------------------------
  free  energy   TOTEN  =       -16.88102917 eV

  energy  without entropy=      -16.88102917  energy(sigma->0) =      -16.88102917
 


--------------------------------------------------------------------------------------------------------


    POTLOK:  cpu time    0.3937: real time    0.3938


--------------------------------------------------------------------------------------------------------


     LOOP+:  cpu time   56.0009: real time   56.0680
    4ORBIT:  cpu time    0.0000: real time    0.0000
 


 total charge     
 
# of ion       s       p       d       tot
------------------------------------------
    1        0.759   0.799   0.000   1.558
    2        0.759   0.799   0.000   1.558
--------------------------------------------------
tot          1.518   1.597   0.000   3.116
 
 BZINTS: Fermi energy:    4.258378;    8.000000 electrons
         Band energy:-0.998532E+01;  BLOECHL correction:    0.000000

 total amount of memory used by VASP MPI-rank0    49127. kBytes
=======================================================================

   base      :      30000. kBytes
   nonl-proj :       6531. kBytes
   fftplans  :       3963. kBytes
   grid      :       1921. kBytes
   one-center:          3. kBytes
   wavefun   :       6709. kBytes
 
  
  
 General timing and accounting informations for this job:
 ========================================================
  
                  Total CPU time used (sec):       58.255
                            User time (sec):       58.033
                          System time (sec):        0.222
                         Elapsed time (sec):       58.623
  
                   Maximum memory used (kb):      136260.
                   Average memory used (kb):           0.
  
                          Minor page faults:        50536
                          Major page faults:            5
                 Voluntary context switches:         1567
