 vasp.6.1.2 22Jul20 (build Mar 11 2021 17:42:27) complex                        
  
 executed on             LinuxIFC date 2021.03.11  18:14:11
 running on   40 total cores
 distrk:  each k-point on   20 cores,    2 groups
 distr:  one band on NCORE=  10 cores,    2 groups


--------------------------------------------------------------------------------------------------------


 INCAR:
 POTCAR:    PAW_PBE Si 05Jan2001                  
 POTCAR:    PAW_PBE Si 05Jan2001                  
   VRHFIN =Si: s2p2                                                                                 
   LEXCH  = PE                                                                                      
   EATOM  =   103.0669 eV,    7.5752 Ry                                                             
                                                                                                    
   TITEL  = PAW_PBE Si 05Jan2001                                                                    
   LULTRA =        F    use ultrasoft PP ?                                                          
   IUNSCR =        1    unscreen: 0-lin 1-nonlin 2-no                                               
   RPACOR =    1.500    partial core radius                                                         
   POMASS =   28.085; ZVAL   =    4.000    mass and valenz                                          
   RCORE  =    1.900    outmost cutoff radius                                                       
   RWIGS  =    2.480; RWIGS  =    1.312    wigner-seitz radius (au A)                               
   ENMAX  =  245.345; ENMIN  =  184.009 eV                                                          
   ICORE  =        2    local potential                                                             
   LCOR   =        T    correct aug charges                                                         
   LPAW   =        T    paw PP                                                                      
   EAUG   =  322.069                                                                                
   DEXC   =    0.000                                                                                
   RMAX   =    1.950    core radius for proj-oper                                                   
   RAUG   =    1.300    factor for augmentation sphere                                              
   RDEP   =    1.993    radius for radial grids                                                     
   RDEPT  =    1.837    core radius for aug-charge                                                  
                                                                                                    
   Atomic configuration                                                                             
    6 entries                                                                                       
     n  l   j            E        occ.                                                              
     1  0  0.50     -1785.8828   2.0000                                                             
     2  0  0.50      -139.4969   2.0000                                                             
     2  1  1.50       -95.5546   6.0000                                                             
     3  0  0.50       -10.8127   2.0000                                                             
     3  1  0.50        -4.0811   2.0000                                                             
     3  2  1.50        -4.0817   0.0000                                                             
   Description                                                                                      
     l       E           TYP  RCUT    TYP  RCUT                                                     
     0    -10.8127223     23  1.900                                                                 
     0     -7.6451159     23  1.900                                                                 
     1     -4.0811372     23  1.900                                                                 
     1      2.4879257     23  1.900                                                                 
     2     -4.0817478      7  1.900                                                                 
  local pseudopotential read in
  partial core-charges read in
  partial kinetic energy density read in
  atomic valenz-charges read in
  non local Contribution for L=           0  read in
    real space projection operators read in
  non local Contribution for L=           0  read in
    real space projection operators read in
  non local Contribution for L=           1  read in
    real space projection operators read in
  non local Contribution for L=           1  read in
    real space projection operators read in
    PAW grid and wavefunctions read in
 
   number of l-projection  operators is LMAX  =           4
   number of lm-projection operators is LMMAX =           8
 
  PAW_PBE Si 05Jan2001                  :
 energy of atom  1       EATOM= -103.0669
 kinetic energy error for atom=    0.0002 (will be added to EATOM!!)
 
 
 POSCAR: Unknown
  positions in direct lattice
  No initial velocities read in

 METAGGA = R2SCA    LMAXTAU =  6    LMIXTAU =  T

 exchange correlation table for  LEXCH =        8
   RHO(1)=    0.500       N(1)  =     2000
   RHO(2)=  100.500       N(2)  =     4000
 


--------------------------------------------------------------------------------------------------------


 ion  position               nearest neighbor table
   1  0.875  0.875  0.875-   2 2.35   2 2.35   2 2.35   2 2.35
   2  0.125  0.125  0.125-   1 2.35   1 2.35   1 2.35   1 2.35
 
  LATTYP: Found a face centered cubic cell.
 ALAT       =     5.4301310054
  
  Lattice vectors:
  
 A1 = (   0.0000000000,   2.7150655027,   2.7150655027)
 A2 = (   2.7150655027,   0.0000000000,   2.7150655027)
 A3 = (   2.7150655027,   2.7150655027,   0.0000000000)


Analysis of symmetry for initial positions (statically):
=====================================================================
 Subroutine PRICEL returns:
 Original cell was already a primitive cell.
 

 Routine SETGRP: Setting up the symmetry group for a 
 face centered cubic supercell.


 Subroutine GETGRP returns: Found 48 space group operations
 (whereof 12 operations were pure point group operations)
 out of a pool of 48 trial point group operations.


The static configuration has the point symmetry D_3d.
 The point group associated with its full space group is O_h .


Analysis of symmetry for dynamics (positions and initial velocities):
=====================================================================
 Subroutine PRICEL returns:
 Original cell was already a primitive cell.
 

 Routine SETGRP: Setting up the symmetry group for a 
 face centered cubic supercell.


 Subroutine GETGRP returns: Found 48 space group operations
 (whereof 12 operations were pure point group operations)
 out of a pool of 48 trial point group operations.


The dynamic configuration has the point symmetry D_3d.
 The point group associated with its full space group is O_h .


 Subroutine INISYM returns: Found 48 space group operations
 (whereof 12 operations are pure point group operations),
 and found     1 'primitive' translations


----------------------------------------------------------------------------------------

                                     Primitive cell                                     

  volume of cell :      40.0286

  direct lattice vectors                    reciprocal lattice vectors
     0.000000000  2.715065503  2.715065503    -0.184157620  0.184157620  0.184157620
     2.715065503  0.000000000  2.715065503     0.184157620 -0.184157620  0.184157620
     2.715065503  2.715065503  0.000000000     0.184157620  0.184157620 -0.184157620

  length of vectors
     3.839682457  3.839682457  3.839682457     0.318970354  0.318970354  0.318970354

  position of ions in fractional coordinates (direct lattice)
     0.875000000  0.875000000  0.875000000
     0.125000000  0.125000000  0.125000000

  ion indices of the primitive-cell ions
   primitive index   ion index
                 1           1
                 2           2

----------------------------------------------------------------------------------------

 
 

Automatic generation of k-mesh.
 generate k-points for:   26   26   26
Space group operators:
 irot       det(A)        alpha          n_x          n_y          n_z        tau_x        tau_y        tau_z
    1     1.000000     0.000000     1.000000     0.000000     0.000000     0.000000     0.000000     0.000000
    2    -1.000000     0.000000     1.000000     0.000000     0.000000     0.000000     0.000000     0.000000
    3     1.000000   120.000000    -0.577350    -0.577350    -0.577350     0.000000     0.000000     0.000000
    4    -1.000000   120.000000    -0.577350    -0.577350    -0.577350     0.000000     0.000000     0.000000
    5     1.000000   120.000000     0.577350     0.577350     0.577350     0.000000     0.000000     0.000000
    6    -1.000000   120.000000     0.577350     0.577350     0.577350     0.000000     0.000000     0.000000
    7     1.000000   180.000000     0.000000    -0.707107     0.707107     0.000000     0.000000     0.000000
    8    -1.000000   180.000000     0.000000    -0.707107     0.707107     0.000000     0.000000     0.000000
    9     1.000000   180.000000     0.707107    -0.707107     0.000000     0.000000     0.000000     0.000000
   10    -1.000000   180.000000     0.707107    -0.707107     0.000000     0.000000     0.000000     0.000000
   11     1.000000   180.000000     0.707107     0.000000    -0.707107     0.000000     0.000000     0.000000
   12    -1.000000   180.000000     0.707107     0.000000    -0.707107     0.000000     0.000000     0.000000
   13     1.000000    90.000000     0.000000     0.000000    -1.000000    -0.500000     0.000000     0.000000
   14    -1.000000    90.000000     0.000000     0.000000    -1.000000    -0.500000     0.000000     0.000000
   15     1.000000   180.000000     0.000000     0.707107     0.707107    -0.500000     0.000000     0.000000
   16    -1.000000   180.000000     0.000000     0.707107     0.707107    -0.500000     0.000000     0.000000
   17     1.000000    90.000000     0.000000     1.000000     0.000000    -0.500000     0.000000     0.000000
   18    -1.000000    90.000000     0.000000     1.000000     0.000000    -0.500000     0.000000     0.000000
   19     1.000000   180.000000     0.000000     0.000000     1.000000     0.000000     0.000000    -0.500000
   20    -1.000000   180.000000     0.000000     0.000000     1.000000     0.000000     0.000000    -0.500000
   21     1.000000   120.000000    -0.577350     0.577350     0.577350     0.000000     0.000000    -0.500000
   22    -1.000000   120.000000    -0.577350     0.577350     0.577350     0.000000     0.000000    -0.500000
   23     1.000000   120.000000    -0.577350     0.577350    -0.577350     0.000000     0.000000    -0.500000
   24    -1.000000   120.000000    -0.577350     0.577350    -0.577350     0.000000     0.000000    -0.500000
   25     1.000000    90.000000     0.000000     0.000000     1.000000     0.000000    -0.500000     0.000000
   26    -1.000000    90.000000     0.000000     0.000000     1.000000     0.000000    -0.500000     0.000000
   27     1.000000    90.000000    -1.000000     0.000000     0.000000     0.000000    -0.500000     0.000000
   28    -1.000000    90.000000    -1.000000     0.000000     0.000000     0.000000    -0.500000     0.000000
   29     1.000000   180.000000     0.707107     0.000000     0.707107     0.000000    -0.500000     0.000000
   30    -1.000000   180.000000     0.707107     0.000000     0.707107     0.000000    -0.500000     0.000000
   31     1.000000   120.000000     0.577350    -0.577350     0.577350    -0.500000     0.000000     0.000000
   32    -1.000000   120.000000     0.577350    -0.577350     0.577350    -0.500000     0.000000     0.000000
   33     1.000000   120.000000    -0.577350    -0.577350     0.577350    -0.500000     0.000000     0.000000
   34    -1.000000   120.000000    -0.577350    -0.577350     0.577350    -0.500000     0.000000     0.000000
   35     1.000000   180.000000     1.000000     0.000000     0.000000    -0.500000     0.000000     0.000000
   36    -1.000000   180.000000     1.000000     0.000000     0.000000    -0.500000     0.000000     0.000000
   37     1.000000    90.000000     0.000000    -1.000000     0.000000     0.000000     0.000000    -0.500000
   38    -1.000000    90.000000     0.000000    -1.000000     0.000000     0.000000     0.000000    -0.500000
   39     1.000000   180.000000     0.707107     0.707107     0.000000     0.000000     0.000000    -0.500000
   40    -1.000000   180.000000     0.707107     0.707107     0.000000     0.000000     0.000000    -0.500000
   41     1.000000    90.000000     1.000000     0.000000     0.000000     0.000000     0.000000    -0.500000
   42    -1.000000    90.000000     1.000000     0.000000     0.000000     0.000000     0.000000    -0.500000
   43     1.000000   120.000000     0.577350    -0.577350    -0.577350     0.000000    -0.500000     0.000000
   44    -1.000000   120.000000     0.577350    -0.577350    -0.577350     0.000000    -0.500000     0.000000
   45     1.000000   180.000000     0.000000     1.000000     0.000000     0.000000    -0.500000     0.000000
   46    -1.000000   180.000000     0.000000     1.000000     0.000000     0.000000    -0.500000     0.000000
   47     1.000000   120.000000     0.577350     0.577350    -0.577350     0.000000    -0.500000     0.000000
   48    -1.000000   120.000000     0.577350     0.577350    -0.577350     0.000000    -0.500000     0.000000
 TETIRR: Found   2360 inequivalent tetrahedra from   105456
 
 Subroutine IBZKPT returns following result:
 ===========================================
 
 Found    511 irreducible k-points:
 
 Following reciprocal coordinates:
            Coordinates               Weight
  0.000000  0.000000  0.000000      1.000000
  0.038462  0.000000  0.000000      8.000000
  0.076923  0.000000  0.000000      8.000000
  0.115385  0.000000  0.000000      8.000000
  0.153846  0.000000  0.000000      8.000000
  0.192308  0.000000  0.000000      8.000000
  0.230769  0.000000  0.000000      8.000000
  0.269231  0.000000  0.000000      8.000000
  0.307692  0.000000  0.000000      8.000000
  0.346154  0.000000  0.000000      8.000000
  0.384615  0.000000  0.000000      8.000000
  0.423077  0.000000  0.000000      8.000000
  0.461538  0.000000  0.000000      8.000000
  0.500000  0.000000  0.000000      4.000000
  0.038462  0.038462  0.000000      6.000000
  0.076923  0.038462  0.000000     24.000000
  0.115385  0.038462  0.000000     24.000000
  0.153846  0.038462  0.000000     24.000000
  0.192308  0.038462  0.000000     24.000000
  0.230769  0.038462  0.000000     24.000000
  0.269231  0.038462  0.000000     24.000000
  0.307692  0.038462  0.000000     24.000000
  0.346154  0.038462  0.000000     24.000000
  0.384615  0.038462  0.000000     24.000000
  0.423077  0.038462  0.000000     24.000000
  0.461538  0.038462  0.000000     24.000000
  0.500000  0.038462  0.000000     24.000000
 -0.461538  0.038462  0.000000     24.000000
 -0.423077  0.038462  0.000000     24.000000
 -0.384615  0.038462  0.000000     24.000000
 -0.346154  0.038462  0.000000     24.000000
 -0.307692  0.038462  0.000000     24.000000
 -0.269231  0.038462  0.000000     24.000000
 -0.230769  0.038462  0.000000     24.000000
 -0.192308  0.038462  0.000000     24.000000
 -0.153846  0.038462  0.000000     24.000000
 -0.115385  0.038462  0.000000     24.000000
 -0.076923  0.038462  0.000000     24.000000
 -0.038462  0.038462  0.000000     12.000000
  0.076923  0.076923  0.000000      6.000000
  0.115385  0.076923  0.000000     24.000000
  0.153846  0.076923  0.000000     24.000000
  0.192308  0.076923  0.000000     24.000000
  0.230769  0.076923  0.000000     24.000000
  0.269231  0.076923  0.000000     24.000000
  0.307692  0.076923  0.000000     24.000000
  0.346154  0.076923  0.000000     24.000000
  0.384615  0.076923  0.000000     24.000000
  0.423077  0.076923  0.000000     24.000000
  0.461538  0.076923  0.000000     24.000000
  0.500000  0.076923  0.000000     24.000000
 -0.461538  0.076923  0.000000     24.000000
 -0.423077  0.076923  0.000000     24.000000
 -0.384615  0.076923  0.000000     24.000000
 -0.346154  0.076923  0.000000     24.000000
 -0.307692  0.076923  0.000000     24.000000
 -0.269231  0.076923  0.000000     24.000000
 -0.230769  0.076923  0.000000     24.000000
 -0.192308  0.076923  0.000000     24.000000
 -0.153846  0.076923  0.000000     24.000000
 -0.115385  0.076923  0.000000     24.000000
 -0.076923  0.076923  0.000000     12.000000
  0.115385  0.115385  0.000000      6.000000
  0.153846  0.115385  0.000000     24.000000
  0.192308  0.115385  0.000000     24.000000
  0.230769  0.115385  0.000000     24.000000
  0.269231  0.115385  0.000000     24.000000
  0.307692  0.115385  0.000000     24.000000
  0.346154  0.115385  0.000000     24.000000
  0.384615  0.115385  0.000000     24.000000
  0.423077  0.115385  0.000000     24.000000
  0.461538  0.115385  0.000000     24.000000
  0.500000  0.115385  0.000000     24.000000
 -0.461538  0.115385  0.000000     24.000000
 -0.423077  0.115385  0.000000     24.000000
 -0.384615  0.115385  0.000000     24.000000
 -0.346154  0.115385  0.000000     24.000000
 -0.307692  0.115385  0.000000     24.000000
 -0.269231  0.115385  0.000000     24.000000
 -0.230769  0.115385  0.000000     24.000000
 -0.192308  0.115385  0.000000     24.000000
 -0.153846  0.115385  0.000000     24.000000
 -0.115385  0.115385  0.000000     12.000000
  0.153846  0.153846  0.000000      6.000000
  0.192308  0.153846  0.000000     24.000000
  0.230769  0.153846  0.000000     24.000000
  0.269231  0.153846  0.000000     24.000000
  0.307692  0.153846  0.000000     24.000000
  0.346154  0.153846  0.000000     24.000000
  0.384615  0.153846  0.000000     24.000000
  0.423077  0.153846  0.000000     24.000000
  0.461538  0.153846  0.000000     24.000000
  0.500000  0.153846  0.000000     24.000000
 -0.461538  0.153846  0.000000     24.000000
 -0.423077  0.153846  0.000000     24.000000
 -0.384615  0.153846  0.000000     24.000000
 -0.346154  0.153846  0.000000     24.000000
 -0.307692  0.153846  0.000000     24.000000
 -0.269231  0.153846  0.000000     24.000000
 -0.230769  0.153846  0.000000     24.000000
 -0.192308  0.153846  0.000000     24.000000
 -0.153846  0.153846  0.000000     12.000000
  0.192308  0.192308  0.000000      6.000000
  0.230769  0.192308  0.000000     24.000000
  0.269231  0.192308  0.000000     24.000000
  0.307692  0.192308  0.000000     24.000000
  0.346154  0.192308  0.000000     24.000000
  0.384615  0.192308  0.000000     24.000000
  0.423077  0.192308  0.000000     24.000000
  0.461538  0.192308  0.000000     24.000000
  0.500000  0.192308  0.000000     24.000000
 -0.461538  0.192308  0.000000     24.000000
 -0.423077  0.192308  0.000000     24.000000
 -0.384615  0.192308  0.000000     24.000000
 -0.346154  0.192308  0.000000     24.000000
 -0.307692  0.192308  0.000000     24.000000
 -0.269231  0.192308  0.000000     24.000000
 -0.230769  0.192308  0.000000     24.000000
 -0.192308  0.192308  0.000000     12.000000
  0.230769  0.230769  0.000000      6.000000
  0.269231  0.230769  0.000000     24.000000
  0.307692  0.230769  0.000000     24.000000
  0.346154  0.230769  0.000000     24.000000
  0.384615  0.230769  0.000000     24.000000
  0.423077  0.230769  0.000000     24.000000
  0.461538  0.230769  0.000000     24.000000
  0.500000  0.230769  0.000000     24.000000
 -0.461538  0.230769  0.000000     24.000000
 -0.423077  0.230769  0.000000     24.000000
 -0.384615  0.230769  0.000000     24.000000
 -0.346154  0.230769  0.000000     24.000000
 -0.307692  0.230769  0.000000     24.000000
 -0.269231  0.230769  0.000000     24.000000
 -0.230769  0.230769  0.000000     12.000000
  0.269231  0.269231  0.000000      6.000000
  0.307692  0.269231  0.000000     24.000000
  0.346154  0.269231  0.000000     24.000000
  0.384615  0.269231  0.000000     24.000000
  0.423077  0.269231  0.000000     24.000000
  0.461538  0.269231  0.000000     24.000000
  0.500000  0.269231  0.000000     24.000000
 -0.461538  0.269231  0.000000     24.000000
 -0.423077  0.269231  0.000000     24.000000
 -0.384615  0.269231  0.000000     24.000000
 -0.346154  0.269231  0.000000     24.000000
 -0.307692  0.269231  0.000000     24.000000
 -0.269231  0.269231  0.000000     12.000000
  0.307692  0.307692  0.000000      6.000000
  0.346154  0.307692  0.000000     24.000000
  0.384615  0.307692  0.000000     24.000000
  0.423077  0.307692  0.000000     24.000000
  0.461538  0.307692  0.000000     24.000000
  0.500000  0.307692  0.000000     24.000000
 -0.461538  0.307692  0.000000     24.000000
 -0.423077  0.307692  0.000000     24.000000
 -0.384615  0.307692  0.000000     24.000000
 -0.346154  0.307692  0.000000     24.000000
 -0.307692  0.307692  0.000000     12.000000
  0.346154  0.346154  0.000000      6.000000
  0.384615  0.346154  0.000000     24.000000
  0.423077  0.346154  0.000000     24.000000
  0.461538  0.346154  0.000000     24.000000
  0.500000  0.346154  0.000000     24.000000
 -0.461538  0.346154  0.000000     24.000000
 -0.423077  0.346154  0.000000     24.000000
 -0.384615  0.346154  0.000000     24.000000
 -0.346154  0.346154  0.000000     12.000000
  0.384615  0.384615  0.000000      6.000000
  0.423077  0.384615  0.000000     24.000000
  0.461538  0.384615  0.000000     24.000000
  0.500000  0.384615  0.000000     24.000000
 -0.461538  0.384615  0.000000     24.000000
 -0.423077  0.384615  0.000000     24.000000
 -0.384615  0.384615  0.000000     12.000000
  0.423077  0.423077  0.000000      6.000000
  0.461538  0.423077  0.000000     24.000000
  0.500000  0.423077  0.000000     24.000000
 -0.461538  0.423077  0.000000     24.000000
 -0.423077  0.423077  0.000000     12.000000
  0.461538  0.461538  0.000000      6.000000
  0.500000  0.461538  0.000000     24.000000
 -0.461538  0.461538  0.000000     12.000000
  0.500000  0.500000  0.000000      3.000000
  0.115385  0.076923  0.038462     24.000000
  0.153846  0.076923  0.038462     48.000000
  0.192308  0.076923  0.038462     48.000000
  0.230769  0.076923  0.038462     48.000000
  0.269231  0.076923  0.038462     48.000000
  0.307692  0.076923  0.038462     48.000000
  0.346154  0.076923  0.038462     48.000000
  0.384615  0.076923  0.038462     48.000000
  0.423077  0.076923  0.038462     48.000000
  0.461538  0.076923  0.038462     48.000000
  0.500000  0.076923  0.038462     48.000000
 -0.461538  0.076923  0.038462     24.000000
  0.153846  0.115385  0.038462     24.000000
  0.192308  0.115385  0.038462     48.000000
  0.230769  0.115385  0.038462     48.000000
  0.269231  0.115385  0.038462     48.000000
  0.307692  0.115385  0.038462     48.000000
  0.346154  0.115385  0.038462     48.000000
  0.384615  0.115385  0.038462     48.000000
  0.423077  0.115385  0.038462     48.000000
  0.461538  0.115385  0.038462     48.000000
  0.500000  0.115385  0.038462     48.000000
 -0.461538  0.115385  0.038462     48.000000
 -0.423077  0.115385  0.038462     48.000000
 -0.384615  0.115385  0.038462     48.000000
 -0.346154  0.115385  0.038462     48.000000
 -0.307692  0.115385  0.038462     48.000000
 -0.269231  0.115385  0.038462     48.000000
 -0.230769  0.115385  0.038462     48.000000
 -0.192308  0.115385  0.038462     48.000000
 -0.153846  0.115385  0.038462     48.000000
 -0.115385  0.115385  0.038462     48.000000
 -0.076923  0.115385  0.038462     24.000000
  0.192308  0.153846  0.038462     24.000000
  0.230769  0.153846  0.038462     48.000000
  0.269231  0.153846  0.038462     48.000000
  0.307692  0.153846  0.038462     48.000000
  0.346154  0.153846  0.038462     48.000000
  0.384615  0.153846  0.038462     48.000000
  0.423077  0.153846  0.038462     48.000000
  0.461538  0.153846  0.038462     48.000000
  0.500000  0.153846  0.038462     48.000000
 -0.461538  0.153846  0.038462     48.000000
 -0.423077  0.153846  0.038462     48.000000
 -0.384615  0.153846  0.038462     48.000000
 -0.346154  0.153846  0.038462     48.000000
 -0.307692  0.153846  0.038462     48.000000
 -0.269231  0.153846  0.038462     48.000000
 -0.230769  0.153846  0.038462     48.000000
 -0.192308  0.153846  0.038462     48.000000
 -0.153846  0.153846  0.038462     48.000000
 -0.115385  0.153846  0.038462     24.000000
  0.230769  0.192308  0.038462     24.000000
  0.269231  0.192308  0.038462     48.000000
  0.307692  0.192308  0.038462     48.000000
  0.346154  0.192308  0.038462     48.000000
  0.384615  0.192308  0.038462     48.000000
  0.423077  0.192308  0.038462     48.000000
  0.461538  0.192308  0.038462     48.000000
  0.500000  0.192308  0.038462     48.000000
 -0.461538  0.192308  0.038462     48.000000
 -0.423077  0.192308  0.038462     48.000000
 -0.384615  0.192308  0.038462     48.000000
 -0.346154  0.192308  0.038462     48.000000
 -0.307692  0.192308  0.038462     48.000000
 -0.269231  0.192308  0.038462     48.000000
 -0.230769  0.192308  0.038462     48.000000
 -0.192308  0.192308  0.038462     48.000000
 -0.153846  0.192308  0.038462     24.000000
  0.269231  0.230769  0.038462     24.000000
  0.307692  0.230769  0.038462     48.000000
  0.346154  0.230769  0.038462     48.000000
  0.384615  0.230769  0.038462     48.000000
  0.423077  0.230769  0.038462     48.000000
  0.461538  0.230769  0.038462     48.000000
  0.500000  0.230769  0.038462     48.000000
 -0.461538  0.230769  0.038462     48.000000
 -0.423077  0.230769  0.038462     48.000000
 -0.384615  0.230769  0.038462     48.000000
 -0.346154  0.230769  0.038462     48.000000
 -0.307692  0.230769  0.038462     48.000000
 -0.269231  0.230769  0.038462     48.000000
 -0.230769  0.230769  0.038462     48.000000
 -0.192308  0.230769  0.038462     24.000000
  0.307692  0.269231  0.038462     24.000000
  0.346154  0.269231  0.038462     48.000000
  0.384615  0.269231  0.038462     48.000000
  0.423077  0.269231  0.038462     48.000000
  0.461538  0.269231  0.038462     48.000000
  0.500000  0.269231  0.038462     48.000000
 -0.461538  0.269231  0.038462     48.000000
 -0.423077  0.269231  0.038462     48.000000
 -0.384615  0.269231  0.038462     48.000000
 -0.346154  0.269231  0.038462     48.000000
 -0.307692  0.269231  0.038462     48.000000
 -0.269231  0.269231  0.038462     48.000000
 -0.230769  0.269231  0.038462     24.000000
  0.346154  0.307692  0.038462     24.000000
  0.384615  0.307692  0.038462     48.000000
  0.423077  0.307692  0.038462     48.000000
  0.461538  0.307692  0.038462     48.000000
  0.500000  0.307692  0.038462     48.000000
 -0.461538  0.307692  0.038462     48.000000
 -0.423077  0.307692  0.038462     48.000000
 -0.384615  0.307692  0.038462     48.000000
 -0.346154  0.307692  0.038462     48.000000
 -0.307692  0.307692  0.038462     48.000000
 -0.269231  0.307692  0.038462     24.000000
  0.384615  0.346154  0.038462     24.000000
  0.423077  0.346154  0.038462     48.000000
  0.461538  0.346154  0.038462     48.000000
  0.500000  0.346154  0.038462     48.000000
 -0.461538  0.346154  0.038462     48.000000
 -0.423077  0.346154  0.038462     48.000000
 -0.384615  0.346154  0.038462     48.000000
 -0.346154  0.346154  0.038462     48.000000
 -0.307692  0.346154  0.038462     24.000000
  0.423077  0.384615  0.038462     24.000000
  0.461538  0.384615  0.038462     48.000000
  0.500000  0.384615  0.038462     48.000000
 -0.461538  0.384615  0.038462     48.000000
 -0.423077  0.384615  0.038462     48.000000
 -0.384615  0.384615  0.038462     48.000000
 -0.346154  0.384615  0.038462     24.000000
  0.461538  0.423077  0.038462     24.000000
  0.500000  0.423077  0.038462     48.000000
 -0.461538  0.423077  0.038462     48.000000
 -0.423077  0.423077  0.038462     48.000000
 -0.384615  0.423077  0.038462     24.000000
  0.500000  0.461538  0.038462     24.000000
 -0.461538  0.461538  0.038462     48.000000
 -0.423077  0.461538  0.038462     24.000000
 -0.461538  0.500000  0.038462     12.000000
  0.230769  0.153846  0.076923     24.000000
  0.269231  0.153846  0.076923     48.000000
  0.307692  0.153846  0.076923     48.000000
  0.346154  0.153846  0.076923     48.000000
  0.384615  0.153846  0.076923     48.000000
  0.423077  0.153846  0.076923     48.000000
  0.461538  0.153846  0.076923     48.000000
  0.500000  0.153846  0.076923     48.000000
 -0.461538  0.153846  0.076923     48.000000
 -0.423077  0.153846  0.076923     24.000000
  0.269231  0.192308  0.076923     24.000000
  0.307692  0.192308  0.076923     48.000000
  0.346154  0.192308  0.076923     48.000000
  0.384615  0.192308  0.076923     48.000000
  0.423077  0.192308  0.076923     48.000000
  0.461538  0.192308  0.076923     48.000000
  0.500000  0.192308  0.076923     48.000000
 -0.461538  0.192308  0.076923     48.000000
 -0.423077  0.192308  0.076923     48.000000
 -0.384615  0.192308  0.076923     48.000000
 -0.346154  0.192308  0.076923     48.000000
 -0.307692  0.192308  0.076923     48.000000
 -0.269231  0.192308  0.076923     48.000000
 -0.230769  0.192308  0.076923     48.000000
 -0.192308  0.192308  0.076923     48.000000
 -0.153846  0.192308  0.076923     48.000000
 -0.115385  0.192308  0.076923     24.000000
  0.307692  0.230769  0.076923     24.000000
  0.346154  0.230769  0.076923     48.000000
  0.384615  0.230769  0.076923     48.000000
  0.423077  0.230769  0.076923     48.000000
  0.461538  0.230769  0.076923     48.000000
  0.500000  0.230769  0.076923     48.000000
 -0.461538  0.230769  0.076923     48.000000
 -0.423077  0.230769  0.076923     48.000000
 -0.384615  0.230769  0.076923     48.000000
 -0.346154  0.230769  0.076923     48.000000
 -0.307692  0.230769  0.076923     48.000000
 -0.269231  0.230769  0.076923     48.000000
 -0.230769  0.230769  0.076923     48.000000
 -0.192308  0.230769  0.076923     48.000000
 -0.153846  0.230769  0.076923     24.000000
  0.346154  0.269231  0.076923     24.000000
  0.384615  0.269231  0.076923     48.000000
  0.423077  0.269231  0.076923     48.000000
  0.461538  0.269231  0.076923     48.000000
  0.500000  0.269231  0.076923     48.000000
 -0.461538  0.269231  0.076923     48.000000
 -0.423077  0.269231  0.076923     48.000000
 -0.384615  0.269231  0.076923     48.000000
 -0.346154  0.269231  0.076923     48.000000
 -0.307692  0.269231  0.076923     48.000000
 -0.269231  0.269231  0.076923     48.000000
 -0.230769  0.269231  0.076923     48.000000
 -0.192308  0.269231  0.076923     24.000000
  0.384615  0.307692  0.076923     24.000000
  0.423077  0.307692  0.076923     48.000000
  0.461538  0.307692  0.076923     48.000000
  0.500000  0.307692  0.076923     48.000000
 -0.461538  0.307692  0.076923     48.000000
 -0.423077  0.307692  0.076923     48.000000
 -0.384615  0.307692  0.076923     48.000000
 -0.346154  0.307692  0.076923     48.000000
 -0.307692  0.307692  0.076923     48.000000
 -0.269231  0.307692  0.076923     48.000000
 -0.230769  0.307692  0.076923     24.000000
  0.423077  0.346154  0.076923     24.000000
  0.461538  0.346154  0.076923     48.000000
  0.500000  0.346154  0.076923     48.000000
 -0.461538  0.346154  0.076923     48.000000
 -0.423077  0.346154  0.076923     48.000000
 -0.384615  0.346154  0.076923     48.000000
 -0.346154  0.346154  0.076923     48.000000
 -0.307692  0.346154  0.076923     48.000000
 -0.269231  0.346154  0.076923     24.000000
  0.461538  0.384615  0.076923     24.000000
  0.500000  0.384615  0.076923     48.000000
 -0.461538  0.384615  0.076923     48.000000
 -0.423077  0.384615  0.076923     48.000000
 -0.384615  0.384615  0.076923     48.000000
 -0.346154  0.384615  0.076923     48.000000
 -0.307692  0.384615  0.076923     24.000000
  0.500000  0.423077  0.076923     24.000000
 -0.461538  0.423077  0.076923     48.000000
 -0.423077  0.423077  0.076923     48.000000
 -0.384615  0.423077  0.076923     48.000000
 -0.346154  0.423077  0.076923     24.000000
 -0.461538  0.461538  0.076923     24.000000
 -0.423077  0.461538  0.076923     48.000000
 -0.384615  0.461538  0.076923     24.000000
 -0.423077  0.500000  0.076923     12.000000
  0.346154  0.230769  0.115385     24.000000
  0.384615  0.230769  0.115385     48.000000
  0.423077  0.230769  0.115385     48.000000
  0.461538  0.230769  0.115385     48.000000
  0.500000  0.230769  0.115385     48.000000
 -0.461538  0.230769  0.115385     48.000000
 -0.423077  0.230769  0.115385     48.000000
 -0.384615  0.230769  0.115385     24.000000
  0.384615  0.269231  0.115385     24.000000
  0.423077  0.269231  0.115385     48.000000
  0.461538  0.269231  0.115385     48.000000
  0.500000  0.269231  0.115385     48.000000
 -0.461538  0.269231  0.115385     48.000000
 -0.423077  0.269231  0.115385     48.000000
 -0.384615  0.269231  0.115385     48.000000
 -0.346154  0.269231  0.115385     48.000000
 -0.307692  0.269231  0.115385     48.000000
 -0.269231  0.269231  0.115385     48.000000
 -0.230769  0.269231  0.115385     48.000000
 -0.192308  0.269231  0.115385     48.000000
 -0.153846  0.269231  0.115385     24.000000
  0.423077  0.307692  0.115385     24.000000
  0.461538  0.307692  0.115385     48.000000
  0.500000  0.307692  0.115385     48.000000
 -0.461538  0.307692  0.115385     48.000000
 -0.423077  0.307692  0.115385     48.000000
 -0.384615  0.307692  0.115385     48.000000
 -0.346154  0.307692  0.115385     48.000000
 -0.307692  0.307692  0.115385     48.000000
 -0.269231  0.307692  0.115385     48.000000
 -0.230769  0.307692  0.115385     48.000000
 -0.192308  0.307692  0.115385     24.000000
  0.461538  0.346154  0.115385     24.000000
  0.500000  0.346154  0.115385     48.000000
 -0.461538  0.346154  0.115385     48.000000
 -0.423077  0.346154  0.115385     48.000000
 -0.384615  0.346154  0.115385     48.000000
 -0.346154  0.346154  0.115385     48.000000
 -0.307692  0.346154  0.115385     48.000000
 -0.269231  0.346154  0.115385     48.000000
 -0.230769  0.346154  0.115385     24.000000
  0.500000  0.384615  0.115385     24.000000
 -0.461538  0.384615  0.115385     48.000000
 -0.423077  0.384615  0.115385     48.000000
 -0.384615  0.384615  0.115385     48.000000
 -0.346154  0.384615  0.115385     48.000000
 -0.307692  0.384615  0.115385     48.000000
 -0.269231  0.384615  0.115385     24.000000
 -0.461538  0.423077  0.115385     24.000000
 -0.423077  0.423077  0.115385     48.000000
 -0.384615  0.423077  0.115385     48.000000
 -0.346154  0.423077  0.115385     48.000000
 -0.307692  0.423077  0.115385     24.000000
 -0.423077  0.461538  0.115385     24.000000
 -0.384615  0.461538  0.115385     48.000000
 -0.346154  0.461538  0.115385     24.000000
 -0.384615  0.500000  0.115385     12.000000
  0.461538  0.307692  0.153846     24.000000
  0.500000  0.307692  0.153846     48.000000
 -0.461538  0.307692  0.153846     48.000000
 -0.423077  0.307692  0.153846     48.000000
 -0.384615  0.307692  0.153846     48.000000
 -0.346154  0.307692  0.153846     24.000000
  0.500000  0.346154  0.153846     24.000000
 -0.461538  0.346154  0.153846     48.000000
 -0.423077  0.346154  0.153846     48.000000
 -0.384615  0.346154  0.153846     48.000000
 -0.346154  0.346154  0.153846     48.000000
 -0.307692  0.346154  0.153846     48.000000
 -0.269231  0.346154  0.153846     48.000000
 -0.230769  0.346154  0.153846     48.000000
 -0.192308  0.346154  0.153846     24.000000
 -0.461538  0.384615  0.153846     24.000000
 -0.423077  0.384615  0.153846     48.000000
 -0.384615  0.384615  0.153846     48.000000
 -0.346154  0.384615  0.153846     48.000000
 -0.307692  0.384615  0.153846     48.000000
 -0.269231  0.384615  0.153846     48.000000
 -0.230769  0.384615  0.153846     24.000000
 -0.423077  0.423077  0.153846     24.000000
 -0.384615  0.423077  0.153846     48.000000
 -0.346154  0.423077  0.153846     48.000000
 -0.307692  0.423077  0.153846     48.000000
 -0.269231  0.423077  0.153846     24.000000
 -0.384615  0.461538  0.153846     24.000000
 -0.346154  0.461538  0.153846     48.000000
 -0.307692  0.461538  0.153846     24.000000
 -0.346154  0.500000  0.153846     12.000000
 -0.423077  0.384615  0.192308     24.000000
 -0.384615  0.384615  0.192308     48.000000
 -0.346154  0.384615  0.192308     48.000000
 -0.307692  0.384615  0.192308     24.000000
 -0.384615  0.423077  0.192308     24.000000
 -0.346154  0.423077  0.192308     48.000000
 -0.307692  0.423077  0.192308     48.000000
 -0.269231  0.423077  0.192308     48.000000
 -0.230769  0.423077  0.192308     24.000000
 -0.346154  0.461538  0.192308     24.000000
 -0.307692  0.461538  0.192308     48.000000
 -0.269231  0.461538  0.192308     24.000000
 -0.307692  0.500000  0.192308     12.000000
 -0.307692  0.461538  0.230769     24.000000
 -0.269231  0.461538  0.230769     24.000000
 -0.269231  0.500000  0.230769     12.000000
 
 Following cartesian coordinates:
            Coordinates               Weight
  0.000000  0.000000  0.000000      1.000000
 -0.038462  0.038462  0.038462      8.000000
 -0.076923  0.076923  0.076923      8.000000
 -0.115385  0.115385  0.115385      8.000000
 -0.153846  0.153846  0.153846      8.000000
 -0.192308  0.192308  0.192308      8.000000
 -0.230769  0.230769  0.230769      8.000000
 -0.269231  0.269231  0.269231      8.000000
 -0.307692  0.307692  0.307692      8.000000
 -0.346154  0.346154  0.346154      8.000000
 -0.384615  0.384615  0.384615      8.000000
 -0.423077  0.423077  0.423077      8.000000
 -0.461538  0.461538  0.461538      8.000000
 -0.500000  0.500000  0.500000      4.000000
  0.000000  0.000000  0.076923      6.000000
 -0.038462  0.038462  0.115385     24.000000
 -0.076923  0.076923  0.153846     24.000000
 -0.115385  0.115385  0.192308     24.000000
 -0.153846  0.153846  0.230769     24.000000
 -0.192308  0.192308  0.269231     24.000000
 -0.230769  0.230769  0.307692     24.000000
 -0.269231  0.269231  0.346154     24.000000
 -0.307692  0.307692  0.384615     24.000000
 -0.346154  0.346154  0.423077     24.000000
 -0.384615  0.384615  0.461538     24.000000
 -0.423077  0.423077  0.500000     24.000000
 -0.461538  0.461538  0.538462     24.000000
  0.500000 -0.500000 -0.423077     24.000000
  0.461538 -0.461538 -0.384615     24.000000
  0.423077 -0.423077 -0.346154     24.000000
  0.384615 -0.384615 -0.307692     24.000000
  0.346154 -0.346154 -0.269231     24.000000
  0.307692 -0.307692 -0.230769     24.000000
  0.269231 -0.269231 -0.192308     24.000000
  0.230769 -0.230769 -0.153846     24.000000
  0.192308 -0.192308 -0.115385     24.000000
  0.153846 -0.153846 -0.076923     24.000000
  0.115385 -0.115385 -0.038462     24.000000
  0.076923 -0.076923  0.000000     12.000000
  0.000000  0.000000  0.153846      6.000000
 -0.038462  0.038462  0.192308     24.000000
 -0.076923  0.076923  0.230769     24.000000
 -0.115385  0.115385  0.269231     24.000000
 -0.153846  0.153846  0.307692     24.000000
 -0.192308  0.192308  0.346154     24.000000
 -0.230769  0.230769  0.384615     24.000000
 -0.269231  0.269231  0.423077     24.000000
 -0.307692  0.307692  0.461538     24.000000
 -0.346154  0.346154  0.500000     24.000000
 -0.384615  0.384615  0.538462     24.000000
 -0.423077  0.423077  0.576923     24.000000
  0.538462 -0.538462 -0.384615     24.000000
  0.500000 -0.500000 -0.346154     24.000000
  0.461538 -0.461538 -0.307692     24.000000
  0.423077 -0.423077 -0.269231     24.000000
  0.384615 -0.384615 -0.230769     24.000000
  0.346154 -0.346154 -0.192308     24.000000
  0.307692 -0.307692 -0.153846     24.000000
  0.269231 -0.269231 -0.115385     24.000000
  0.230769 -0.230769 -0.076923     24.000000
  0.192308 -0.192308 -0.038462     24.000000
  0.153846 -0.153846  0.000000     12.000000
  0.000000  0.000000  0.230769      6.000000
 -0.038462  0.038462  0.269231     24.000000
 -0.076923  0.076923  0.307692     24.000000
 -0.115385  0.115385  0.346154     24.000000
 -0.153846  0.153846  0.384615     24.000000
 -0.192308  0.192308  0.423077     24.000000
 -0.230769  0.230769  0.461538     24.000000
 -0.269231  0.269231  0.500000     24.000000
 -0.307692  0.307692  0.538462     24.000000
 -0.346154  0.346154  0.576923     24.000000
 -0.384615  0.384615  0.615385     24.000000
  0.576923 -0.576923 -0.346154     24.000000
  0.538462 -0.538462 -0.307692     24.000000
  0.500000 -0.500000 -0.269231     24.000000
  0.461538 -0.461538 -0.230769     24.000000
  0.423077 -0.423077 -0.192308     24.000000
  0.384615 -0.384615 -0.153846     24.000000
  0.346154 -0.346154 -0.115385     24.000000
  0.307692 -0.307692 -0.076923     24.000000
  0.269231 -0.269231 -0.038462     24.000000
  0.230769 -0.230769  0.000000     12.000000
  0.000000  0.000000  0.307692      6.000000
 -0.038462  0.038462  0.346154     24.000000
 -0.076923  0.076923  0.384615     24.000000
 -0.115385  0.115385  0.423077     24.000000
 -0.153846  0.153846  0.461538     24.000000
 -0.192308  0.192308  0.500000     24.000000
 -0.230769  0.230769  0.538462     24.000000
 -0.269231  0.269231  0.576923     24.000000
 -0.307692  0.307692  0.615385     24.000000
 -0.346154  0.346154  0.653846     24.000000
  0.615385 -0.615385 -0.307692     24.000000
  0.576923 -0.576923 -0.269231     24.000000
  0.538462 -0.538462 -0.230769     24.000000
  0.500000 -0.500000 -0.192308     24.000000
  0.461538 -0.461538 -0.153846     24.000000
  0.423077 -0.423077 -0.115385     24.000000
  0.384615 -0.384615 -0.076923     24.000000
  0.346154 -0.346154 -0.038462     24.000000
  0.307692 -0.307692  0.000000     12.000000
  0.000000  0.000000  0.384615      6.000000
 -0.038462  0.038462  0.423077     24.000000
 -0.076923  0.076923  0.461538     24.000000
 -0.115385  0.115385  0.500000     24.000000
 -0.153846  0.153846  0.538462     24.000000
 -0.192308  0.192308  0.576923     24.000000
 -0.230769  0.230769  0.615385     24.000000
 -0.269231  0.269231  0.653846     24.000000
 -0.307692  0.307692  0.692308     24.000000
  0.653846 -0.653846 -0.269231     24.000000
  0.615385 -0.615385 -0.230769     24.000000
  0.576923 -0.576923 -0.192308     24.000000
  0.538462 -0.538462 -0.153846     24.000000
  0.500000 -0.500000 -0.115385     24.000000
  0.461538 -0.461538 -0.076923     24.000000
  0.423077 -0.423077 -0.038462     24.000000
  0.384615 -0.384615  0.000000     12.000000
  0.000000  0.000000  0.461538      6.000000
 -0.038462  0.038462  0.500000     24.000000
 -0.076923  0.076923  0.538462     24.000000
 -0.115385  0.115385  0.576923     24.000000
 -0.153846  0.153846  0.615385     24.000000
 -0.192308  0.192308  0.653846     24.000000
 -0.230769  0.230769  0.692308     24.000000
 -0.269231  0.269231  0.730769     24.000000
  0.692308 -0.692308 -0.230769     24.000000
  0.653846 -0.653846 -0.192308     24.000000
  0.615385 -0.615385 -0.153846     24.000000
  0.576923 -0.576923 -0.115385     24.000000
  0.538462 -0.538462 -0.076923     24.000000
  0.500000 -0.500000 -0.038462     24.000000
  0.461538 -0.461538  0.000000     12.000000
  0.000000  0.000000  0.538462      6.000000
 -0.038462  0.038462  0.576923     24.000000
 -0.076923  0.076923  0.615385     24.000000
 -0.115385  0.115385  0.653846     24.000000
 -0.153846  0.153846  0.692308     24.000000
 -0.192308  0.192308  0.730769     24.000000
 -0.230769  0.230769  0.769231     24.000000
  0.730769 -0.730769 -0.192308     24.000000
  0.692308 -0.692308 -0.153846     24.000000
  0.653846 -0.653846 -0.115385     24.000000
  0.615385 -0.615385 -0.076923     24.000000
  0.576923 -0.576923 -0.038462     24.000000
  0.538462 -0.538462  0.000000     12.000000
  0.000000  0.000000  0.615385      6.000000
 -0.038462  0.038462  0.653846     24.000000
 -0.076923  0.076923  0.692308     24.000000
 -0.115385  0.115385  0.730769     24.000000
 -0.153846  0.153846  0.769231     24.000000
 -0.192308  0.192308  0.807692     24.000000
  0.769231 -0.769231 -0.153846     24.000000
  0.730769 -0.730769 -0.115385     24.000000
  0.692308 -0.692308 -0.076923     24.000000
  0.653846 -0.653846 -0.038462     24.000000
  0.615385 -0.615385  0.000000     12.000000
  0.000000  0.000000  0.692308      6.000000
 -0.038462  0.038462  0.730769     24.000000
 -0.076923  0.076923  0.769231     24.000000
 -0.115385  0.115385  0.807692     24.000000
 -0.153846  0.153846  0.846154     24.000000
  0.807692 -0.807692 -0.115385     24.000000
  0.769231 -0.769231 -0.076923     24.000000
  0.730769 -0.730769 -0.038462     24.000000
  0.692308 -0.692308  0.000000     12.000000
  0.000000  0.000000  0.769231      6.000000
 -0.038462  0.038462  0.807692     24.000000
 -0.076923  0.076923  0.846154     24.000000
 -0.115385  0.115385  0.884615     24.000000
  0.846154 -0.846154 -0.076923     24.000000
  0.807692 -0.807692 -0.038462     24.000000
  0.769231 -0.769231  0.000000     12.000000
  0.000000  0.000000  0.846154      6.000000
 -0.038462  0.038462  0.884615     24.000000
 -0.076923  0.076923  0.923077     24.000000
  0.884615 -0.884615 -0.038462     24.000000
  0.846154 -0.846154  0.000000     12.000000
  0.000000  0.000000  0.923077      6.000000
 -0.038462  0.038462  0.961538     24.000000
  0.923077 -0.923077  0.000000     12.000000
  0.000000  0.000000  1.000000      3.000000
  0.000000  0.076923  0.153846     24.000000
 -0.038462  0.115385  0.192308     48.000000
 -0.076923  0.153846  0.230769     48.000000
 -0.115385  0.192308  0.269231     48.000000
 -0.153846  0.230769  0.307692     48.000000
 -0.192308  0.269231  0.346154     48.000000
 -0.230769  0.307692  0.384615     48.000000
 -0.269231  0.346154  0.423077     48.000000
 -0.307692  0.384615  0.461538     48.000000
 -0.346154  0.423077  0.500000     48.000000
 -0.384615  0.461538  0.538462     48.000000
  0.576923 -0.500000 -0.423077     24.000000
  0.000000  0.076923  0.230769     24.000000
 -0.038462  0.115385  0.269231     48.000000
 -0.076923  0.153846  0.307692     48.000000
 -0.115385  0.192308  0.346154     48.000000
 -0.153846  0.230769  0.384615     48.000000
 -0.192308  0.269231  0.423077     48.000000
 -0.230769  0.307692  0.461538     48.000000
 -0.269231  0.346154  0.500000     48.000000
 -0.307692  0.384615  0.538462     48.000000
 -0.346154  0.423077  0.576923     48.000000
  0.615385 -0.538462 -0.384615     48.000000
  0.576923 -0.500000 -0.346154     48.000000
  0.538462 -0.461538 -0.307692     48.000000
  0.500000 -0.423077 -0.269231     48.000000
  0.461538 -0.384615 -0.230769     48.000000
  0.423077 -0.346154 -0.192308     48.000000
  0.384615 -0.307692 -0.153846     48.000000
  0.346154 -0.269231 -0.115385     48.000000
  0.307692 -0.230769 -0.076923     48.000000
  0.269231 -0.192308 -0.038462     48.000000
  0.230769 -0.153846 -0.000000     24.000000
  0.000000  0.076923  0.307692     24.000000
 -0.038462  0.115385  0.346154     48.000000
 -0.076923  0.153846  0.384615     48.000000
 -0.115385  0.192308  0.423077     48.000000
 -0.153846  0.230769  0.461538     48.000000
 -0.192308  0.269231  0.500000     48.000000
 -0.230769  0.307692  0.538462     48.000000
 -0.269231  0.346154  0.576923     48.000000
 -0.307692  0.384615  0.615385     48.000000
  0.653846 -0.576923 -0.346154     48.000000
  0.615385 -0.538462 -0.307692     48.000000
  0.576923 -0.500000 -0.269231     48.000000
  0.538462 -0.461538 -0.230769     48.000000
  0.500000 -0.423077 -0.192308     48.000000
  0.461538 -0.384615 -0.153846     48.000000
  0.423077 -0.346154 -0.115385     48.000000
  0.384615 -0.307692 -0.076923     48.000000
  0.346154 -0.269231 -0.038462     48.000000
  0.307692 -0.230769 -0.000000     24.000000
  0.000000  0.076923  0.384615     24.000000
 -0.038462  0.115385  0.423077     48.000000
 -0.076923  0.153846  0.461538     48.000000
 -0.115385  0.192308  0.500000     48.000000
 -0.153846  0.230769  0.538462     48.000000
 -0.192308  0.269231  0.576923     48.000000
 -0.230769  0.307692  0.615385     48.000000
 -0.269231  0.346154  0.653846     48.000000
  0.692308 -0.615385 -0.307692     48.000000
  0.653846 -0.576923 -0.269231     48.000000
  0.615385 -0.538462 -0.230769     48.000000
  0.576923 -0.500000 -0.192308     48.000000
  0.538462 -0.461538 -0.153846     48.000000
  0.500000 -0.423077 -0.115385     48.000000
  0.461538 -0.384615 -0.076923     48.000000
  0.423077 -0.346154 -0.038462     48.000000
  0.384615 -0.307692 -0.000000     24.000000
  0.000000  0.076923  0.461538     24.000000
 -0.038462  0.115385  0.500000     48.000000
 -0.076923  0.153846  0.538462     48.000000
 -0.115385  0.192308  0.576923     48.000000
 -0.153846  0.230769  0.615385     48.000000
 -0.192308  0.269231  0.653846     48.000000
 -0.230769  0.307692  0.692308     48.000000
  0.730769 -0.653846 -0.269231     48.000000
  0.692308 -0.615385 -0.230769     48.000000
  0.653846 -0.576923 -0.192308     48.000000
  0.615385 -0.538462 -0.153846     48.000000
  0.576923 -0.500000 -0.115385     48.000000
  0.538462 -0.461538 -0.076923     48.000000
  0.500000 -0.423077 -0.038462     48.000000
  0.461538 -0.384615 -0.000000     24.000000
  0.000000  0.076923  0.538462     24.000000
 -0.038462  0.115385  0.576923     48.000000
 -0.076923  0.153846  0.615385     48.000000
 -0.115385  0.192308  0.653846     48.000000
 -0.153846  0.230769  0.692308     48.000000
 -0.192308  0.269231  0.730769     48.000000
  0.769231 -0.692308 -0.230769     48.000000
  0.730769 -0.653846 -0.192308     48.000000
  0.692308 -0.615385 -0.153846     48.000000
  0.653846 -0.576923 -0.115385     48.000000
  0.615385 -0.538462 -0.076923     48.000000
  0.576923 -0.500000 -0.038462     48.000000
  0.538462 -0.461538 -0.000000     24.000000
  0.000000  0.076923  0.615385     24.000000
 -0.038462  0.115385  0.653846     48.000000
 -0.076923  0.153846  0.692308     48.000000
 -0.115385  0.192308  0.730769     48.000000
 -0.153846  0.230769  0.769231     48.000000
  0.807692 -0.730769 -0.192308     48.000000
  0.769231 -0.692308 -0.153846     48.000000
  0.730769 -0.653846 -0.115385     48.000000
  0.692308 -0.615385 -0.076923     48.000000
  0.653846 -0.576923 -0.038462     48.000000
  0.615385 -0.538462 -0.000000     24.000000
  0.000000  0.076923  0.692308     24.000000
 -0.038462  0.115385  0.730769     48.000000
 -0.076923  0.153846  0.769231     48.000000
 -0.115385  0.192308  0.807692     48.000000
  0.846154 -0.769231 -0.153846     48.000000
  0.807692 -0.730769 -0.115385     48.000000
  0.769231 -0.692308 -0.076923     48.000000
  0.730769 -0.653846 -0.038462     48.000000
  0.692308 -0.615385 -0.000000     24.000000
  0.000000  0.076923  0.769231     24.000000
 -0.038462  0.115385  0.807692     48.000000
 -0.076923  0.153846  0.846154     48.000000
  0.884615 -0.807692 -0.115385     48.000000
  0.846154 -0.769231 -0.076923     48.000000
  0.807692 -0.730769 -0.038462     48.000000
  0.769231 -0.692308 -0.000000     24.000000
  0.000000  0.076923  0.846154     24.000000
 -0.038462  0.115385  0.884615     48.000000
  0.923077 -0.846154 -0.076923     48.000000
  0.884615 -0.807692 -0.038462     48.000000
  0.846154 -0.769231 -0.000000     24.000000
  0.000000  0.076923  0.923077     24.000000
  0.961538 -0.884615 -0.038462     48.000000
  0.923077 -0.846154  0.000000     24.000000
  1.000000 -0.923077 -0.000000     12.000000
  0.000000  0.153846  0.307692     24.000000
 -0.038462  0.192308  0.346154     48.000000
 -0.076923  0.230769  0.384615     48.000000
 -0.115385  0.269231  0.423077     48.000000
 -0.153846  0.307692  0.461538     48.000000
 -0.192308  0.346154  0.500000     48.000000
 -0.230769  0.384615  0.538462     48.000000
 -0.269231  0.423077  0.576923     48.000000
  0.692308 -0.538462 -0.384615     48.000000
  0.653846 -0.500000 -0.346154     24.000000
  0.000000  0.153846  0.384615     24.000000
 -0.038462  0.192308  0.423077     48.000000
 -0.076923  0.230769  0.461538     48.000000
 -0.115385  0.269231  0.500000     48.000000
 -0.153846  0.307692  0.538462     48.000000
 -0.192308  0.346154  0.576923     48.000000
 -0.230769  0.384615  0.615385     48.000000
  0.730769 -0.576923 -0.346154     48.000000
  0.692308 -0.538462 -0.307692     48.000000
  0.653846 -0.500000 -0.269231     48.000000
  0.615385 -0.461538 -0.230769     48.000000
  0.576923 -0.423077 -0.192308     48.000000
  0.538462 -0.384615 -0.153846     48.000000
  0.500000 -0.346154 -0.115385     48.000000
  0.461538 -0.307692 -0.076923     48.000000
  0.423077 -0.269231 -0.038462     48.000000
  0.384615 -0.230769 -0.000000     24.000000
  0.000000  0.153846  0.461538     24.000000
 -0.038462  0.192308  0.500000     48.000000
 -0.076923  0.230769  0.538462     48.000000
 -0.115385  0.269231  0.576923     48.000000
 -0.153846  0.307692  0.615385     48.000000
 -0.192308  0.346154  0.653846     48.000000
  0.769231 -0.615385 -0.307692     48.000000
  0.730769 -0.576923 -0.269231     48.000000
  0.692308 -0.538462 -0.230769     48.000000
  0.653846 -0.500000 -0.192308     48.000000
  0.615385 -0.461538 -0.153846     48.000000
  0.576923 -0.423077 -0.115385     48.000000
  0.538462 -0.384615 -0.076923     48.000000
  0.500000 -0.346154 -0.038462     48.000000
  0.461538 -0.307692 -0.000000     24.000000
  0.000000  0.153846  0.538462     24.000000
 -0.038462  0.192308  0.576923     48.000000
 -0.076923  0.230769  0.615385     48.000000
 -0.115385  0.269231  0.653846     48.000000
 -0.153846  0.307692  0.692308     48.000000
  0.807692 -0.653846 -0.269231     48.000000
  0.769231 -0.615385 -0.230769     48.000000
  0.730769 -0.576923 -0.192308     48.000000
  0.692308 -0.538462 -0.153846     48.000000
  0.653846 -0.500000 -0.115385     48.000000
  0.615385 -0.461538 -0.076923     48.000000
  0.576923 -0.423077 -0.038462     48.000000
  0.538462 -0.384615 -0.000000     24.000000
  0.000000  0.153846  0.615385     24.000000
 -0.038462  0.192308  0.653846     48.000000
 -0.076923  0.230769  0.692308     48.000000
 -0.115385  0.269231  0.730769     48.000000
  0.846154 -0.692308 -0.230769     48.000000
  0.807692 -0.653846 -0.192308     48.000000
  0.769231 -0.615385 -0.153846     48.000000
  0.730769 -0.576923 -0.115385     48.000000
  0.692308 -0.538462 -0.076923     48.000000
  0.653846 -0.500000 -0.038462     48.000000
  0.615385 -0.461538 -0.000000     24.000000
  0.000000  0.153846  0.692308     24.000000
 -0.038462  0.192308  0.730769     48.000000
 -0.076923  0.230769  0.769231     48.000000
  0.884615 -0.730769 -0.192308     48.000000
  0.846154 -0.692308 -0.153846     48.000000
  0.807692 -0.653846 -0.115385     48.000000
  0.769231 -0.615385 -0.076923     48.000000
  0.730769 -0.576923 -0.038462     48.000000
  0.692308 -0.538462 -0.000000     24.000000
  0.000000  0.153846  0.769231     24.000000
 -0.038462  0.192308  0.807692     48.000000
  0.923077 -0.769231 -0.153846     48.000000
  0.884615 -0.730769 -0.115385     48.000000
  0.846154 -0.692308 -0.076923     48.000000
  0.807692 -0.653846 -0.038462     48.000000
  0.769231 -0.615385 -0.000000     24.000000
  0.000000  0.153846  0.846154     24.000000
  0.961538 -0.807692 -0.115385     48.000000
  0.923077 -0.769231 -0.076923     48.000000
  0.884615 -0.730769 -0.038462     48.000000
  0.846154 -0.692308 -0.000000     24.000000
  1.000000 -0.846154 -0.076923     24.000000
  0.961538 -0.807692 -0.038462     48.000000
  0.923077 -0.769231 -0.000000     24.000000
  1.000000 -0.846154 -0.000000     12.000000
 -0.000000  0.230769  0.461538     24.000000
 -0.038462  0.269231  0.500000     48.000000
 -0.076923  0.307692  0.538462     48.000000
 -0.115385  0.346154  0.576923     48.000000
 -0.153846  0.384615  0.615385     48.000000
  0.807692 -0.576923 -0.346154     48.000000
  0.769231 -0.538462 -0.307692     48.000000
  0.730769 -0.500000 -0.269231     24.000000
 -0.000000  0.230769  0.538462     24.000000
 -0.038462  0.269231  0.576923     48.000000
 -0.076923  0.307692  0.615385     48.000000
 -0.115385  0.346154  0.653846     48.000000
  0.846154 -0.615385 -0.307692     48.000000
  0.807692 -0.576923 -0.269231     48.000000
  0.769231 -0.538462 -0.230769     48.000000
  0.730769 -0.500000 -0.192308     48.000000
  0.692308 -0.461538 -0.153846     48.000000
  0.653846 -0.423077 -0.115385     48.000000
  0.615385 -0.384615 -0.076923     48.000000
  0.576923 -0.346154 -0.038462     48.000000
  0.538462 -0.307692  0.000000     24.000000
 -0.000000  0.230769  0.615385     24.000000
 -0.038462  0.269231  0.653846     48.000000
 -0.076923  0.307692  0.692308     48.000000
  0.884615 -0.653846 -0.269231     48.000000
  0.846154 -0.615385 -0.230769     48.000000
  0.807692 -0.576923 -0.192308     48.000000
  0.769231 -0.538462 -0.153846     48.000000
  0.730769 -0.500000 -0.115385     48.000000
  0.692308 -0.461538 -0.076923     48.000000
  0.653846 -0.423077 -0.038462     48.000000
  0.615385 -0.384615  0.000000     24.000000
  0.000000  0.230769  0.692308     24.000000
 -0.038462  0.269231  0.730769     48.000000
  0.923077 -0.692308 -0.230769     48.000000
  0.884615 -0.653846 -0.192308     48.000000
  0.846154 -0.615385 -0.153846     48.000000
  0.807692 -0.576923 -0.115385     48.000000
  0.769231 -0.538462 -0.076923     48.000000
  0.730769 -0.500000 -0.038462     48.000000
  0.692308 -0.461538  0.000000     24.000000
  0.000000  0.230769  0.769231     24.000000
  0.961538 -0.730769 -0.192308     48.000000
  0.923077 -0.692308 -0.153846     48.000000
  0.884615 -0.653846 -0.115385     48.000000
  0.846154 -0.615385 -0.076923     48.000000
  0.807692 -0.576923 -0.038462     48.000000
  0.769231 -0.538462  0.000000     24.000000
  1.000000 -0.769231 -0.153846     24.000000
  0.961538 -0.730769 -0.115385     48.000000
  0.923077 -0.692308 -0.076923     48.000000
  0.884615 -0.653846 -0.038462     48.000000
  0.846154 -0.615385  0.000000     24.000000
  1.000000 -0.769231 -0.076923     24.000000
  0.961538 -0.730769 -0.038462     48.000000
  0.923077 -0.692308 -0.000000     24.000000
  1.000000 -0.769231 -0.000000     12.000000
  0.000000  0.307692  0.615385     24.000000
 -0.038462  0.346154  0.653846     48.000000
  0.923077 -0.615385 -0.307692     48.000000
  0.884615 -0.576923 -0.269231     48.000000
  0.846154 -0.538462 -0.230769     48.000000
  0.807692 -0.500000 -0.192308     24.000000
  0.000000  0.307692  0.692308     24.000000
  0.961538 -0.653846 -0.269231     48.000000
  0.923077 -0.615385 -0.230769     48.000000
  0.884615 -0.576923 -0.192308     48.000000
  0.846154 -0.538462 -0.153846     48.000000
  0.807692 -0.500000 -0.115385     48.000000
  0.769231 -0.461538 -0.076923     48.000000
  0.730769 -0.423077 -0.038462     48.000000
  0.692308 -0.384615  0.000000     24.000000
  1.000000 -0.692308 -0.230769     24.000000
  0.961538 -0.653846 -0.192308     48.000000
  0.923077 -0.615385 -0.153846     48.000000
  0.884615 -0.576923 -0.115385     48.000000
  0.846154 -0.538462 -0.076923     48.000000
  0.807692 -0.500000 -0.038462     48.000000
  0.769231 -0.461538  0.000000     24.000000
  1.000000 -0.692308 -0.153846     24.000000
  0.961538 -0.653846 -0.115385     48.000000
  0.923077 -0.615385 -0.076923     48.000000
  0.884615 -0.576923 -0.038462     48.000000
  0.846154 -0.538462  0.000000     24.000000
  1.000000 -0.692308 -0.076923     24.000000
  0.961538 -0.653846 -0.038462     48.000000
  0.923077 -0.615385  0.000000     24.000000
  1.000000 -0.692308  0.000000     12.000000
  1.000000 -0.615385 -0.230769     24.000000
  0.961538 -0.576923 -0.192308     48.000000
  0.923077 -0.538462 -0.153846     48.000000
  0.884615 -0.500000 -0.115385     24.000000
  1.000000 -0.615385 -0.153846     24.000000
  0.961538 -0.576923 -0.115385     48.000000
  0.923077 -0.538462 -0.076923     48.000000
  0.884615 -0.500000 -0.038462     48.000000
  0.846154 -0.461538 -0.000000     24.000000
  1.000000 -0.615385 -0.076923     24.000000
  0.961538 -0.576923 -0.038462     48.000000
  0.923077 -0.538462  0.000000     24.000000
  1.000000 -0.615385  0.000000     12.000000
  1.000000 -0.538462 -0.076923     24.000000
  0.961538 -0.500000 -0.038462     24.000000
  1.000000 -0.538462  0.000000     12.000000
 


--------------------------------------------------------------------------------------------------------




 Dimension of arrays:
   k-points           NKPTS =    511   k-points in BZ     NKDIM =    511   number of bands    NBANDS=      8
   number of dos      NEDOS =    301   number of ions     NIONS =      2
   non local maximal  LDIM  =      4   non local SUM 2l+1 LMDIM =      8
   total plane-waves  NPLWV =  46656
   max r-space proj   IRMAX =      1   max aug-charges    IRDMAX= 311928
   dimension x,y,z NGX =    36 NGY =   36 NGZ =   36
   dimension x,y,z NGXF=    72 NGYF=   72 NGZF=   72
   support grid    NGXF=   144 NGYF=  144 NGZF=  144
   ions per type =               2
   NGX,Y,Z   is equivalent  to a cutoff of  15.59, 15.59, 15.59 a.u.
   NGXF,Y,Z  is equivalent  to a cutoff of  31.17, 31.17, 31.17 a.u.

 SYSTEM =  Si                                      
 POSCAR =  Unknown                                 

 Startparameter for this run:
   NWRITE =      2    write-flag & timer
   PREC   = accura    normal or accurate (medium, high low for compatibility)
   ISTART =      0    job   : 0-new  1-cont  2-samecut
   ICHARG =      2    charge: 1-file 2-atom 10-const
   ISPIN  =      1    spin polarized calculation?
   LNONCOLLINEAR =      F non collinear calculations
   LSORBIT =      F    spin-orbit coupling
   INIWAV =      1    electr: 0-lowe 1-rand  2-diag
   LASPH  =      T    aspherical Exc in radial PAW
   METAGGA=      F    non-selfconsistent MetaGGA calc.

 Electronic Relaxation 1
   ENCUT  =  800.0 eV  58.80 Ry    7.67 a.u.   8.86  8.86  8.86*2*pi/ulx,y,z
   ENINI  =  800.0     initial cutoff
   ENAUG  =  900.0 eV  augmentation charge cutoff
   NELM   =    200;   NELMIN=  6; NELMDL=  0     # of ELM steps 
   EDIFF  = 0.1E-06   stopping-criterion for ELM
   LREAL  =      F    real-space projection
   NLSPLINE    = F    spline interpolate recip. space projectors
   LCOMPAT=      F    compatible to vasp.4.4
   GGA_COMPAT  = T    GGA compatible to vasp.4.4-vasp.4.6
   LMAXPAW     = -100 max onsite density
   LMAXMIX     =    4 max onsite mixed and CHGCAR
   VOSKOWN=      0    Vosko Wilk Nusair interpolation
   ROPT   =    0.00000
 Ionic relaxation
   EDIFFG = 0.1E-05   stopping-criterion for IOM
   NSW    =      0    number of steps for IOM
   NBLOCK =      1;   KBLOCK =      1    inner block; outer block 
   IBRION =     -1    ionic relax: 0-MD 1-quasi-New 2-CG
   NFREE  =      0    steps in history (QN), initial steepest desc. (CG)
   ISIF   =      2    stress and relaxation
   IWAVPR =     10    prediction:  0-non 1-charg 2-wave 3-comb
   ISYM   =      2    0-nonsym 1-usesym 2-fastsym
   LCORR  =      T    Harris-Foulkes like correction to forces

   POTIM  = 0.5000    time-step for ionic-motion
   TEIN   =    0.0    initial temperature
   TEBEG  =    0.0;   TEEND  =   0.0 temperature during run
   SMASS  =  -3.00    Nose mass-parameter (am)
   estimated Nose-frequenzy (Omega)   =  0.10E-29 period in steps = 0.13E+47 mass=  -0.337E-27a.u.
   SCALEE = 1.0000    scale energy and forces
   NPACO  =    256;   APACO  = 16.0  distance and # of slots for P.C.
   PSTRESS=    0.0 pullay stress

  Mass of Ions in am
   POMASS =  28.09
  Ionic Valenz
   ZVAL   =   4.00
  Atomic Wigner-Seitz radii
   RWIGS  =  -1.00
  virtual crystal weights 
   VCA    =   1.00
   NELECT =       8.0000    total number of electrons
   NUPDOWN=      -1.0000    fix difference up-down

 DOS related values:
   EMIN   =  10.00;   EMAX   =-10.00  energy-range for DOS
   EFERMI =   0.00
   ISMEAR =    -5;   SIGMA  =   0.20  broadening in eV -4-tet -1-fermi 0-gaus

 Electronic relaxation 2 (details)
   IALGO  =     38    algorithm
   LDIAG  =      T    sub-space diagonalisation (order eigenvalues)
   LSUBROT=      F    optimize rotation matrix (better conditioning)
   TURBO    =      0    0=normal 1=particle mesh
   IRESTART =      0    0=no restart 2=restart with 2 vectors
   NREBOOT  =      0    no. of reboots
   NMIN     =      0    reboot dimension
   EREF     =   0.00    reference energy to select bands
   IMIX   =      4    mixing-type and parameters
     AMIX     =   0.40;   BMIX     =  1.00
     AMIX_MAG =   1.60;   BMIX_MAG =  1.00
     AMIN     =   0.10
     WC   =   100.;   INIMIX=   1;  MIXPRE=   1;  MAXMIX= -45

 Intra band minimization:
   WEIMIN = 0.0000     energy-eigenvalue tresh-hold
   EBREAK =  0.31E-08  absolut break condition
   DEPER  =   0.30     relativ break condition  

   TIME   =   0.40     timestep for ELM

  volume/ion in A,a.u.               =      20.01       135.06
  Fermi-wavevector in a.u.,A,eV,Ry     =   0.957153  1.808756 12.464856  0.916141
  Thomas-Fermi vector in A             =   2.086145
 
 Write flags
   LWAVE        =      F    write WAVECAR
   LDOWNSAMPLE  =      F    k-point downsampling of WAVECAR
   LCHARG       =      F    write CHGCAR
   LVTOT        =      F    write LOCPOT, total local potential
   LVHAR        =      F    write LOCPOT, Hartree potential only
   LELF         =      F    write electronic localiz. function (ELF)
   LORBIT       =     11    0 simple, 1 ext, 2 COOP (PROOUT), +10 PAW based schemes


 Dipole corrections
   LMONO  =      F    monopole corrections only (constant potential shift)
   LDIPOL =      F    correct potential (dipole corrections)
   IDIPOL =      0    1-x, 2-y, 3-z, 4-all directions 
   EPSILON=  1.0000000 bulk dielectric constant

 Exchange correlation treatment:
   GGA     =    PE    GGA type
   LEXCH   =     8    internal setting for exchange type
   VOSKOWN=      0    Vosko Wilk Nusair interpolation
   LHFCALC =     F    Hartree Fock is set to
   LHFONE  =     F    Hartree Fock one center treatment
   AEXX    =    0.0000 exact exchange contribution

 Linear response parameters
   LEPSILON=     F    determine dielectric tensor
   LRPA    =     F    only Hartree local field effects (RPA)
   LNABLA  =     F    use nabla operator in PAW spheres
   LVEL    =     F    velocity operator in full k-point grid
   LINTERFAST=   F  fast interpolation
   KINTER  =     0    interpolate to denser k-point grid
   CSHIFT  =0.1000    complex shift for real part using Kramers Kronig
   OMEGAMAX=  -1.0    maximum frequency
   DEG_THRESHOLD= 0.2000000E-02 threshold for treating states as degnerate
   RTIME   =   -0.100 relaxation time in fs
  (WPLASMAI=    0.000 imaginary part of plasma frequency in eV, 0.658/RTIME)
   DFIELD  = 0.0000000 0.0000000 0.0000000 field for delta impulse in time
 
 Orbital magnetization related:
   ORBITALMAG=     F  switch on orbital magnetization
   LCHIMAG   =     F  perturbation theory with respect to B field
   DQ        =  0.001000  dq finite difference perturbation B field
   LLRAUG    =     F  two centre corrections for induced B field



--------------------------------------------------------------------------------------------------------


 Static calculation
 charge density and potential will be updated during run
 non-spin polarized calculation
 Variant of blocked Davidson
 Davidson routine will perform the subspace rotation
 perform sub-space diagonalisation
    after iterative eigenvector-optimisation
 modified Broyden-mixing scheme, WC =      100.0
 initial mixing is a Kerker type mixing with AMIX =  0.4000 and BMIX =      1.0000
 Hartree-type preconditioning will be used
 using additional bands            4
 reciprocal scheme for non local part
 use partial core corrections
 calculate Harris-corrections to forces 
   (improved forces if not selfconsistent)
 use gradient corrections 
 use of overlap-Matrix (Vanderbilt PP)
 Fermi weights with tetrahedron method with Bloechl corrections


--------------------------------------------------------------------------------------------------------


  energy-cutoff  :      800.00
  volume of cell :       40.03
      direct lattice vectors                 reciprocal lattice vectors
     0.000000000  2.715065503  2.715065503    -0.184157620  0.184157620  0.184157620
     2.715065503  0.000000000  2.715065503     0.184157620 -0.184157620  0.184157620
     2.715065503  2.715065503  0.000000000     0.184157620  0.184157620 -0.184157620

  length of vectors
     3.839682457  3.839682457  3.839682457     0.318970354  0.318970354  0.318970354


 
 k-points in units of 2pi/SCALE and weight: read from INCAR                         
   0.00000000  0.00000000  0.00000000       0.000
  -0.03846154  0.03846154  0.03846154       0.000
  -0.07692308  0.07692308  0.07692308       0.000
  -0.11538462  0.11538462  0.11538462       0.000
  -0.15384615  0.15384615  0.15384615       0.000
  -0.19230769  0.19230769  0.19230769       0.000
  -0.23076923  0.23076923  0.23076923       0.000
  -0.26923077  0.26923077  0.26923077       0.000
  -0.30769231  0.30769231  0.30769231       0.000
  -0.34615385  0.34615385  0.34615385       0.000
  -0.38461538  0.38461538  0.38461538       0.000
  -0.42307692  0.42307692  0.42307692       0.000
  -0.46153846  0.46153846  0.46153846       0.000
  -0.50000000  0.50000000  0.50000000       0.000
   0.00000000  0.00000000  0.07692308       0.000
  -0.03846154  0.03846154  0.11538462       0.001
  -0.07692308  0.07692308  0.15384615       0.001
  -0.11538462  0.11538462  0.19230769       0.001
  -0.15384615  0.15384615  0.23076923       0.001
  -0.19230769  0.19230769  0.26923077       0.001
  -0.23076923  0.23076923  0.30769231       0.001
  -0.26923077  0.26923077  0.34615385       0.001
  -0.30769231  0.30769231  0.38461538       0.001
  -0.34615385  0.34615385  0.42307692       0.001
  -0.38461538  0.38461538  0.46153846       0.001
  -0.42307692  0.42307692  0.50000000       0.001
  -0.46153846  0.46153846  0.53846154       0.001
   0.50000000 -0.50000000 -0.42307692       0.001
   0.46153846 -0.46153846 -0.38461538       0.001
   0.42307692 -0.42307692 -0.34615385       0.001
   0.38461538 -0.38461538 -0.30769231       0.001
   0.34615385 -0.34615385 -0.26923077       0.001
   0.30769231 -0.30769231 -0.23076923       0.001
   0.26923077 -0.26923077 -0.19230769       0.001
   0.23076923 -0.23076923 -0.15384615       0.001
   0.19230769 -0.19230769 -0.11538462       0.001
   0.15384615 -0.15384615 -0.07692308       0.001
   0.11538462 -0.11538462 -0.03846154       0.001
   0.07692308 -0.07692308  0.00000000       0.001
   0.00000000  0.00000000  0.15384615       0.000
  -0.03846154  0.03846154  0.19230769       0.001
  -0.07692308  0.07692308  0.23076923       0.001
  -0.11538462  0.11538462  0.26923077       0.001
  -0.15384615  0.15384615  0.30769231       0.001
  -0.19230769  0.19230769  0.34615385       0.001
  -0.23076923  0.23076923  0.38461538       0.001
  -0.26923077  0.26923077  0.42307692       0.001
  -0.30769231  0.30769231  0.46153846       0.001
  -0.34615385  0.34615385  0.50000000       0.001
  -0.38461538  0.38461538  0.53846154       0.001
  -0.42307692  0.42307692  0.57692308       0.001
   0.53846154 -0.53846154 -0.38461538       0.001
   0.50000000 -0.50000000 -0.34615385       0.001
   0.46153846 -0.46153846 -0.30769231       0.001
   0.42307692 -0.42307692 -0.26923077       0.001
   0.38461538 -0.38461538 -0.23076923       0.001
   0.34615385 -0.34615385 -0.19230769       0.001
   0.30769231 -0.30769231 -0.15384615       0.001
   0.26923077 -0.26923077 -0.11538462       0.001
   0.23076923 -0.23076923 -0.07692308       0.001
   0.19230769 -0.19230769 -0.03846154       0.001
   0.15384615 -0.15384615  0.00000000       0.001
   0.00000000  0.00000000  0.23076923       0.000
  -0.03846154  0.03846154  0.26923077       0.001
  -0.07692308  0.07692308  0.30769231       0.001
  -0.11538462  0.11538462  0.34615385       0.001
  -0.15384615  0.15384615  0.38461538       0.001
  -0.19230769  0.19230769  0.42307692       0.001
  -0.23076923  0.23076923  0.46153846       0.001
  -0.26923077  0.26923077  0.50000000       0.001
  -0.30769231  0.30769231  0.53846154       0.001
  -0.34615385  0.34615385  0.57692308       0.001
  -0.38461538  0.38461538  0.61538462       0.001
   0.57692308 -0.57692308 -0.34615385       0.001
   0.53846154 -0.53846154 -0.30769231       0.001
   0.50000000 -0.50000000 -0.26923077       0.001
   0.46153846 -0.46153846 -0.23076923       0.001
   0.42307692 -0.42307692 -0.19230769       0.001
   0.38461538 -0.38461538 -0.15384615       0.001
   0.34615385 -0.34615385 -0.11538462       0.001
   0.30769231 -0.30769231 -0.07692308       0.001
   0.26923077 -0.26923077 -0.03846154       0.001
   0.23076923 -0.23076923  0.00000000       0.001
   0.00000000  0.00000000  0.30769231       0.000
  -0.03846154  0.03846154  0.34615385       0.001
  -0.07692308  0.07692308  0.38461538       0.001
  -0.11538462  0.11538462  0.42307692       0.001
  -0.15384615  0.15384615  0.46153846       0.001
  -0.19230769  0.19230769  0.50000000       0.001
  -0.23076923  0.23076923  0.53846154       0.001
  -0.26923077  0.26923077  0.57692308       0.001
  -0.30769231  0.30769231  0.61538462       0.001
  -0.34615385  0.34615385  0.65384615       0.001
   0.61538462 -0.61538462 -0.30769231       0.001
   0.57692308 -0.57692308 -0.26923077       0.001
   0.53846154 -0.53846154 -0.23076923       0.001
   0.50000000 -0.50000000 -0.19230769       0.001
   0.46153846 -0.46153846 -0.15384615       0.001
   0.42307692 -0.42307692 -0.11538462       0.001
   0.38461538 -0.38461538 -0.07692308       0.001
   0.34615385 -0.34615385 -0.03846154       0.001
   0.30769231 -0.30769231  0.00000000       0.001
   0.00000000  0.00000000  0.38461538       0.000
  -0.03846154  0.03846154  0.42307692       0.001
  -0.07692308  0.07692308  0.46153846       0.001
  -0.11538462  0.11538462  0.50000000       0.001
  -0.15384615  0.15384615  0.53846154       0.001
  -0.19230769  0.19230769  0.57692308       0.001
  -0.23076923  0.23076923  0.61538462       0.001
  -0.26923077  0.26923077  0.65384615       0.001
  -0.30769231  0.30769231  0.69230769       0.001
   0.65384615 -0.65384615 -0.26923077       0.001
   0.61538462 -0.61538462 -0.23076923       0.001
   0.57692308 -0.57692308 -0.19230769       0.001
   0.53846154 -0.53846154 -0.15384615       0.001
   0.50000000 -0.50000000 -0.11538462       0.001
   0.46153846 -0.46153846 -0.07692308       0.001
   0.42307692 -0.42307692 -0.03846154       0.001
   0.38461538 -0.38461538  0.00000000       0.001
   0.00000000  0.00000000  0.46153846       0.000
  -0.03846154  0.03846154  0.50000000       0.001
  -0.07692308  0.07692308  0.53846154       0.001
  -0.11538462  0.11538462  0.57692308       0.001
  -0.15384615  0.15384615  0.61538462       0.001
  -0.19230769  0.19230769  0.65384615       0.001
  -0.23076923  0.23076923  0.69230769       0.001
  -0.26923077  0.26923077  0.73076923       0.001
   0.69230769 -0.69230769 -0.23076923       0.001
   0.65384615 -0.65384615 -0.19230769       0.001
   0.61538462 -0.61538462 -0.15384615       0.001
   0.57692308 -0.57692308 -0.11538462       0.001
   0.53846154 -0.53846154 -0.07692308       0.001
   0.50000000 -0.50000000 -0.03846154       0.001
   0.46153846 -0.46153846  0.00000000       0.001
   0.00000000  0.00000000  0.53846154       0.000
  -0.03846154  0.03846154  0.57692308       0.001
  -0.07692308  0.07692308  0.61538462       0.001
  -0.11538462  0.11538462  0.65384615       0.001
  -0.15384615  0.15384615  0.69230769       0.001
  -0.19230769  0.19230769  0.73076923       0.001
  -0.23076923  0.23076923  0.76923077       0.001
   0.73076923 -0.73076923 -0.19230769       0.001
   0.69230769 -0.69230769 -0.15384615       0.001
   0.65384615 -0.65384615 -0.11538462       0.001
   0.61538462 -0.61538462 -0.07692308       0.001
   0.57692308 -0.57692308 -0.03846154       0.001
   0.53846154 -0.53846154  0.00000000       0.001
   0.00000000  0.00000000  0.61538462       0.000
  -0.03846154  0.03846154  0.65384615       0.001
  -0.07692308  0.07692308  0.69230769       0.001
  -0.11538462  0.11538462  0.73076923       0.001
  -0.15384615  0.15384615  0.76923077       0.001
  -0.19230769  0.19230769  0.80769231       0.001
   0.76923077 -0.76923077 -0.15384615       0.001
   0.73076923 -0.73076923 -0.11538462       0.001
   0.69230769 -0.69230769 -0.07692308       0.001
   0.65384615 -0.65384615 -0.03846154       0.001
   0.61538462 -0.61538462  0.00000000       0.001
   0.00000000  0.00000000  0.69230769       0.000
  -0.03846154  0.03846154  0.73076923       0.001
  -0.07692308  0.07692308  0.76923077       0.001
  -0.11538462  0.11538462  0.80769231       0.001
  -0.15384615  0.15384615  0.84615385       0.001
   0.80769231 -0.80769231 -0.11538462       0.001
   0.76923077 -0.76923077 -0.07692308       0.001
   0.73076923 -0.73076923 -0.03846154       0.001
   0.69230769 -0.69230769  0.00000000       0.001
   0.00000000  0.00000000  0.76923077       0.000
  -0.03846154  0.03846154  0.80769231       0.001
  -0.07692308  0.07692308  0.84615385       0.001
  -0.11538462  0.11538462  0.88461538       0.001
   0.84615385 -0.84615385 -0.07692308       0.001
   0.80769231 -0.80769231 -0.03846154       0.001
   0.76923077 -0.76923077  0.00000000       0.001
   0.00000000  0.00000000  0.84615385       0.000
  -0.03846154  0.03846154  0.88461538       0.001
  -0.07692308  0.07692308  0.92307692       0.001
   0.88461538 -0.88461538 -0.03846154       0.001
   0.84615385 -0.84615385  0.00000000       0.001
   0.00000000  0.00000000  0.92307692       0.000
  -0.03846154  0.03846154  0.96153846       0.001
   0.92307692 -0.92307692  0.00000000       0.001
   0.00000000  0.00000000  1.00000000       0.000
   0.00000000  0.07692308  0.15384615       0.001
  -0.03846154  0.11538462  0.19230769       0.003
  -0.07692308  0.15384615  0.23076923       0.003
  -0.11538462  0.19230769  0.26923077       0.003
  -0.15384615  0.23076923  0.30769231       0.003
  -0.19230769  0.26923077  0.34615385       0.003
  -0.23076923  0.30769231  0.38461538       0.003
  -0.26923077  0.34615385  0.42307692       0.003
  -0.30769231  0.38461538  0.46153846       0.003
  -0.34615385  0.42307692  0.50000000       0.003
  -0.38461538  0.46153846  0.53846154       0.003
   0.57692308 -0.50000000 -0.42307692       0.001
   0.00000000  0.07692308  0.23076923       0.001
  -0.03846154  0.11538462  0.26923077       0.003
  -0.07692308  0.15384615  0.30769231       0.003
  -0.11538462  0.19230769  0.34615385       0.003
  -0.15384615  0.23076923  0.38461538       0.003
  -0.19230769  0.26923077  0.42307692       0.003
  -0.23076923  0.30769231  0.46153846       0.003
  -0.26923077  0.34615385  0.50000000       0.003
  -0.30769231  0.38461538  0.53846154       0.003
  -0.34615385  0.42307692  0.57692308       0.003
   0.61538462 -0.53846154 -0.38461538       0.003
   0.57692308 -0.50000000 -0.34615385       0.003
   0.53846154 -0.46153846 -0.30769231       0.003
   0.50000000 -0.42307692 -0.26923077       0.003
   0.46153846 -0.38461538 -0.23076923       0.003
   0.42307692 -0.34615385 -0.19230769       0.003
   0.38461538 -0.30769231 -0.15384615       0.003
   0.34615385 -0.26923077 -0.11538462       0.003
   0.30769231 -0.23076923 -0.07692308       0.003
   0.26923077 -0.19230769 -0.03846154       0.003
   0.23076923 -0.15384615 -0.00000000       0.001
   0.00000000  0.07692308  0.30769231       0.001
  -0.03846154  0.11538462  0.34615385       0.003
  -0.07692308  0.15384615  0.38461538       0.003
  -0.11538462  0.19230769  0.42307692       0.003
  -0.15384615  0.23076923  0.46153846       0.003
  -0.19230769  0.26923077  0.50000000       0.003
  -0.23076923  0.30769231  0.53846154       0.003
  -0.26923077  0.34615385  0.57692308       0.003
  -0.30769231  0.38461538  0.61538462       0.003
   0.65384615 -0.57692308 -0.34615385       0.003
   0.61538462 -0.53846154 -0.30769231       0.003
   0.57692308 -0.50000000 -0.26923077       0.003
   0.53846154 -0.46153846 -0.23076923       0.003
[...]
      8      13.5903      0.00000

 k-point   478 :      -0.2308    0.3462    0.1538
  band No.  band energies     occupation 
      1      -3.8044      2.00000
      2      -0.8004      2.00000
      3       1.5861      2.00000
      4       3.0541      2.00000
      5       9.5626      0.00000
      6       9.6997      0.00000
      7      10.6921      0.00000
      8      13.8270      0.00000

 k-point   479 :      -0.1923    0.3462    0.1538
  band No.  band energies     occupation 
      1      -4.1111      2.00000
      2      -0.4507      2.00000
      3       1.7541      2.00000
      4       3.2369      2.00000
      5       9.3802      0.00000
      6       9.7773      0.00000
      7      10.3313      0.00000
      8      13.5316      0.00000

 k-point   480 :      -0.4615    0.3846    0.1538
  band No.  band energies     occupation 
      1      -3.8359      2.00000
      2      -0.7112      2.00000
      3       1.9509      2.00000
      4       2.7435      2.00000
      5       8.4693      0.00000
      6       9.1024      0.00000
      7      11.3675      0.00000
      8      14.4718      0.00000

 k-point   481 :      -0.4231    0.3846    0.1538
  band No.  band energies     occupation 
      1      -3.5276      2.00000
      2      -1.0443      2.00000
      3       1.7581      2.00000
      4       2.5875      2.00000
      5       8.7128      0.00000
      6       9.4841      0.00000
      7      11.1973      0.00000
      8      14.7523      0.00000

 k-point   482 :      -0.3846    0.3846    0.1538
  band No.  band energies     occupation 
      1      -3.2418      2.00000
      2      -1.3466      2.00000
      3       1.5883      2.00000
      4       2.5069      2.00000
      5       8.8267      0.00000
      6      10.0778      0.00000
      7      11.0708      0.00000
      8      13.8430      0.00000

 k-point   483 :      -0.3462    0.3846    0.1538
  band No.  band energies     occupation 
      1      -3.0455      2.00000
      2      -1.5489      2.00000
      3       1.4521      2.00000
      4       2.5027      2.00000
      5       8.9336      0.00000
      6      10.5551      0.00000
      7      11.1761      0.00000
      8      12.9825      0.00000

 k-point   484 :      -0.3077    0.3846    0.1538
  band No.  band energies     occupation 
      1      -3.0388      2.00000
      2      -1.5521      2.00000
      3       1.3661      2.00000
      4       2.5658      2.00000
      5       9.0631      0.00000
      6      10.5771      0.00000
      7      11.7275      0.00000
      8      12.2591      0.00000

 k-point   485 :      -0.2692    0.3846    0.1538
  band No.  band energies     occupation 
      1      -3.2238      2.00000
      2      -1.3601      2.00000
      3       1.3481      2.00000
      4       2.6857      2.00000
      5       9.2198      0.00000
      6      10.4525      0.00000
      7      11.3631      0.00000
      8      12.7194      0.00000

 k-point   486 :      -0.2308    0.3846    0.1538
  band No.  band energies     occupation 
      1      -3.5015      2.00000
      2      -1.0829      2.00000
      3       1.4164      2.00000
      4       2.8522      2.00000
      5       9.4013      0.00000
      6      10.1714      0.00000
      7      10.8732      0.00000
      8      13.5732      0.00000

 k-point   487 :      -0.4231    0.4231    0.1538
  band No.  band energies     occupation 
      1      -3.3485      2.00000
      2      -1.2341      2.00000
      3       1.8938      2.00000
      4       2.4100      2.00000
      5       8.4269      0.00000
      6       8.8383      0.00000
      7      11.9844      0.00000
      8      14.8704      0.00000

 k-point   488 :      -0.3846    0.4231    0.1538
  band No.  band energies     occupation 
      1      -3.0475      2.00000
      2      -1.5271      2.00000
      3       1.7166      2.00000
      4       2.2898      2.00000
      5       8.6474      0.00000
      6       9.3158      0.00000
      7      11.8144      0.00000
      8      13.9594      0.00000

 k-point   489 :      -0.3462    0.4231    0.1538
  band No.  band energies     occupation 
      1      -2.8108      2.00000
      2      -1.7508      2.00000
      3       1.5266      2.00000
      4       2.2868      2.00000
      5       8.7585      0.00000
      6       9.9991      0.00000
      7      11.6711      0.00000
      8      13.0789      0.00000

 k-point   490 :      -0.3077    0.4231    0.1538
  band No.  band energies     occupation 
      1      -2.7679      2.00000
      2      -1.7832      2.00000
      3       1.3791      2.00000
      4       2.3648      2.00000
      5       8.8846      0.00000
      6      10.6858      0.00000
      7      11.6011      0.00000
      8      12.2641      0.00000

 k-point   491 :      -0.2692    0.4231    0.1538
  band No.  band energies     occupation 
      1      -2.9495      2.00000
      2      -1.6046      2.00000
      3       1.3115      2.00000
      4       2.5018      2.00000
      5       9.0388      0.00000
      6      10.9345      0.00000
      7      11.5907      0.00000
      8      11.9549      0.00000

 k-point   492 :      -0.3846    0.4615    0.1538
  band No.  band energies     occupation 
      1      -2.8356      2.00000
      2      -1.7685      2.00000
      3       1.9061      2.00000
      4       2.1598      2.00000
      5       8.4392      0.00000
      6       8.6417      0.00000
      7      12.6479      0.00000
      8      14.0996      0.00000

 k-point   493 :      -0.3462    0.4615    0.1538
  band No.  band energies     occupation 
      1      -2.5643      2.00000
      2      -2.0108      2.00000
      3       1.7178      2.00000
      4       2.1160      2.00000
      5       8.6160      0.00000
      6       9.2295      0.00000
      7      12.4825      0.00000
      8      13.2050      0.00000

 k-point   494 :      -0.3077    0.4615    0.1538
  band No.  band energies     occupation 
      1      -2.5389      2.00000
      2      -2.0128      2.00000
      3       1.5074      2.00000
      4       2.2103      2.00000
      5       8.7356      0.00000
      6       9.9700      0.00000
      7      12.2677      0.00000
      8      12.4301      0.00000

 k-point   495 :      -0.3462    0.5000    0.1538
  band No.  band energies     occupation 
      1      -2.3057      2.00000
      2      -2.3057      2.00000
      3       1.9930      2.00000
      4       1.9930      2.00000
      5       8.5097      0.00000
      6       8.5097      0.00000
      7      13.3547      0.00000
      8      13.3547      0.00000

 k-point   496 :      -0.4231    0.3846    0.1923
  band No.  band energies     occupation 
      1      -3.6791      2.00000
      2      -0.8844      2.00000
      3       1.6553      2.00000
      4       2.7695      2.00000
      5       9.2911      0.00000
      6       9.7904      0.00000
      7      10.5116      0.00000
      8      14.4074      0.00000

 k-point   497 :      -0.3846    0.3846    0.1923
  band No.  band energies     occupation 
      1      -3.3799      2.00000
      2      -1.1934      2.00000
      3       1.5218      2.00000
      4       2.6028      2.00000
      5       9.5292      0.00000
      6       9.9924      0.00000
      7      10.6074      0.00000
      8      13.7005      0.00000

 k-point   498 :      -0.3462    0.3846    0.1923
  band No.  band energies     occupation 
      1      -3.1326      2.00000
      2      -1.4511      2.00000
      3       1.4486      2.00000
      4       2.4955      2.00000
      5       9.6052      0.00000
      6      10.0060      0.00000
      7      11.1587      0.00000
      8      12.8358      0.00000

 k-point   499 :      -0.3077    0.3846    0.1923
  band No.  band energies     occupation 
      1      -3.0276      2.00000
      2      -1.5605      2.00000
      3       1.4255      2.00000
      4       2.4585      2.00000
      5       9.6316      0.00000
      6       9.9792      0.00000
      7      11.7112      0.00000
      8      12.2086      0.00000

 k-point   500 :      -0.3846    0.4231    0.1923
  band No.  band energies     occupation 
      1      -3.2223      2.00000
      2      -1.3318      2.00000
      3       1.6289      2.00000
      4       2.3671      2.00000
      5       9.2481      0.00000
      6       9.5964      0.00000
      7      11.0318      0.00000
      8      13.8184      0.00000

 k-point   501 :      -0.3462    0.4231    0.1923
  band No.  band energies     occupation 
      1      -2.9442      2.00000
      2      -1.5966      2.00000
      3       1.5292      2.00000
      4       2.2297      2.00000
      5       9.4662      0.00000
      6      10.0822      0.00000
      7      10.9334      0.00000
      8      12.9267      0.00000

 k-point   502 :      -0.3077    0.4231    0.1923
  band No.  band energies     occupation 
      1      -2.7795      2.00000
      2      -1.7533      2.00000
      3       1.4525      2.00000
      4       2.1950      2.00000
      5       9.5755      0.00000
      6      10.4430      0.00000
      7      11.1532      0.00000
      8      12.1078      0.00000

 k-point   503 :      -0.2692    0.4231    0.1923
  band No.  band energies     occupation 
      1      -2.8470      2.00000
      2      -1.6853      2.00000
      3       1.4115      2.00000
      4       2.2578      2.00000
      5       9.6954      0.00000
      6      10.3978      0.00000
      7      11.2139      0.00000
      8      12.0005      0.00000

 k-point   504 :      -0.2308    0.4231    0.1923
  band No.  band energies     occupation 
      1      -3.0858      2.00000
      2      -1.4581      2.00000
      3       1.4285      2.00000
      4       2.4000      2.00000
      5       9.8221      0.00000
      6      10.1234      0.00000
      7      10.7403      0.00000
      8      12.8058      0.00000

 k-point   505 :      -0.3462    0.4615    0.1923
  band No.  band energies     occupation 
      1      -2.7492      2.00000
      2      -1.7948      2.00000
      3       1.6815      2.00000
      4       2.0479      2.00000
      5       9.2552      0.00000
      6       9.4297      0.00000
      7      11.6470      0.00000
      8      13.0507      0.00000

 k-point   506 :      -0.3077    0.4615    0.1923
  band No.  band energies     occupation 
      1      -2.5266      2.00000
      2      -1.9942      2.00000
      3       1.5897      2.00000
      4       1.9798      2.00000
      5       9.4339      0.00000
      6      10.0535      0.00000
      7      11.5144      0.00000
      8      12.1930      0.00000

 k-point   507 :      -0.2692    0.4615    0.1923
  band No.  band energies     occupation 
      1      -2.5928      2.00000
      2      -1.9209      2.00000
      3       1.4691      2.00000
      4       2.0763      2.00000
      5       9.5590      0.00000
      6      10.6437      0.00000
      7      11.4536      0.00000
      8      11.5140      0.00000

 k-point   508 :      -0.3077    0.5000    0.1923
  band No.  band energies     occupation 
      1      -2.2700      2.00000
      2      -2.2700      2.00000
      3       1.8195      2.00000
      4       1.8195      2.00000
      5       9.3152      0.00000
      6       9.3152      0.00000
      7      12.3236      0.00000
      8      12.3236      0.00000

 k-point   509 :      -0.3077    0.4615    0.2308
  band No.  band energies     occupation 
      1      -2.6650      2.00000
      2      -1.8459      2.00000
      3       1.5299      2.00000
      4       2.0186      2.00000
      5      10.0915      0.00000
      6      10.1126      0.00000
      7      10.8929      0.00000
      8      12.0671      0.00000

 k-point   510 :      -0.2692    0.4615    0.2308
  band No.  band energies     occupation 
      1      -2.5124      2.00000
      2      -1.9885      2.00000
      3       1.5460      2.00000
      4       1.9311      2.00000
      5      10.1050      0.00000
      6      10.4151      0.00000
      7      11.1022      0.00000
      8      11.4606      0.00000

 k-point   511 :      -0.2692    0.5000    0.2308
  band No.  band energies     occupation 
      1      -2.2492      2.00000
      2      -2.2492      2.00000
      3       1.7262      2.00000
      4       1.7262      2.00000
      5      10.1256      0.00000
      6      10.1256      0.00000
      7      11.4017      0.00000
      8      11.4017      0.00000


--------------------------------------------------------------------------------------------------------


 soft charge-density along one line, spin component           1
         0         1         2         3         4         5         6         7         8         9
 total charge-density along one line
 
 pseudopotential strength for first ion, spin component:           1
 18.211  25.406   0.000   0.000   0.000   0.000   0.000   0.000
 25.406  35.449   0.000   0.000   0.000   0.000   0.000   0.000
  0.000   0.000   4.158   0.000   0.000   7.750   0.000   0.000
  0.000   0.000   0.000   4.158   0.000   0.000   7.750   0.000
  0.000   0.000   0.000   0.000   4.158   0.000   0.000   7.750
  0.000   0.000   7.750   0.000   0.000  14.455   0.000   0.000
  0.000   0.000   0.000   7.750   0.000   0.000  14.455   0.000
  0.000   0.000   0.000   0.000   7.750   0.000   0.000  14.455
 total augmentation occupancy for first ion, spin component:           1
  9.129  -4.088   0.000   0.000   0.000  -0.000  -0.000  -0.000
 -4.088   1.897   0.000   0.000   0.000  -0.000   0.000  -0.000
  0.000   0.000   4.050  -0.000   0.000  -1.097   0.000  -0.000
  0.000   0.000  -0.000   4.050  -0.000   0.000  -1.097  -0.000
  0.000   0.000   0.000   0.000   4.050  -0.000   0.000  -1.097
 -0.000  -0.000  -1.097  -0.000  -0.000   0.303  -0.000   0.000
 -0.000   0.000   0.000  -1.097  -0.000  -0.000   0.303  -0.000
 -0.000   0.000  -0.000  -0.000  -1.097   0.000  -0.000   0.303


------------------------ aborting loop because EDIFF is reached ----------------------------------------


 


 total charge     
 
# of ion       s       p       d       tot
------------------------------------------
    1        0.745   0.965   0.000   1.711
    2        0.745   0.965   0.000   1.711
--------------------------------------------------
tot          1.491   1.931   0.000   3.421
 
    CHARGE:  cpu time    0.0620: real time    0.0622
    FORLOC:  cpu time    0.0005: real time    0.0005
    FORNL :  cpu time    0.1288: real time    0.1288
    STRESS:  cpu time    9.4922: real time    9.4924
    FORCOR:  cpu time    0.0467: real time    0.0467
    FORHAR:  cpu time    0.0026: real time    0.0026
    MIXING:  cpu time    0.0028: real time    0.0028
    OFIELD:  cpu time    0.0000: real time    0.0000

  FORCE on cell =-STRESS in cart. coord.  units (eV):
  Direction    XX          YY          ZZ          XY          YZ          ZX
  --------------------------------------------------------------------------------------
  Alpha Z     3.36390     3.36390     3.36390
  Ewald     -76.18604   -76.18604   -76.18604    -0.00000    -0.00000    -0.00000
  Hartree     4.98340     4.98340     4.98340     0.00000     0.00000     0.00000
  E(xc)     -24.42903   -24.58935   -24.52050     0.10363    -0.00574     0.04345
  Local     -28.93260   -28.93260   -28.93260     0.00000     0.00000     0.00000
  n-local    76.30841    77.88356    72.22912     2.22159    -1.31018     0.52188
  augment   -10.59155   -10.59155   -10.59155    -0.00000    -0.00000    -0.00000
  Kinetic    58.75774    55.86936    54.96999     3.49691    -0.75263     1.09838
  Fock        0.00000     0.00000     0.00000     0.00000     0.00000     0.00000
  -------------------------------------------------------------------------------------
  Total       0.13021     0.13021     0.13021     0.00000    -0.00000     0.00000
  in kB       5.21192     5.21192     5.21192     0.00000    -0.00000     0.00000
  external pressure =        5.21 kB  Pullay stress =        0.00 kB


 VOLUME and BASIS-vectors are now :
 -----------------------------------------------------------------------------
  energy-cutoff  :      800.00
  volume of cell :       40.03
      direct lattice vectors                 reciprocal lattice vectors
     0.000000000  2.715065503  2.715065503    -0.184157620  0.184157620  0.184157620
     2.715065503  0.000000000  2.715065503     0.184157620 -0.184157620  0.184157620
     2.715065503  2.715065503  0.000000000     0.184157620  0.184157620 -0.184157620

  length of vectors
     3.839682457  3.839682457  3.839682457     0.318970354  0.318970354  0.318970354


 FORCES acting on ions
    electron-ion (+dipol)            ewald-force                    non-local-force                 convergence-correction
 -----------------------------------------------------------------------------------------------
   0.331E-07 0.331E-07 0.304E-07   0.851E-14 0.358E-14 0.316E-14   -.222E-15 0.347E-17 -.208E-16   -.527E-10 -.527E-10 -.527E-10
   -.331E-07 -.331E-07 -.304E-07   -.845E-14 -.370E-14 -.387E-14   0.798E-16 0.139E-16 -.382E-16   0.527E-10 0.527E-10 0.527E-10
 -----------------------------------------------------------------------------------------------
   -.638E-13 0.147E-12 0.107E-12   0.561E-16 -.112E-15 -.709E-15   -.142E-15 0.173E-16 -.590E-16   -.263E-14 -.104E-14 -.196E-14
 
 
 POSITION                                       TOTAL-FORCE (eV/Angst)
 -----------------------------------------------------------------------------------
      4.75136      4.75136      4.75136        -0.000000     -0.000000     -0.000000
      0.67877      0.67877      0.67877         0.000000      0.000000      0.000000
 -----------------------------------------------------------------------------------
    total drift:                               -0.000000      0.000000      0.000000


--------------------------------------------------------------------------------------------------------



  FREE ENERGIE OF THE ION-ELECTRON SYSTEM (eV)
  ---------------------------------------------------
  free  energy   TOTEN  =       -17.54992264 eV

  energy  without entropy=      -17.54992264  energy(sigma->0) =      -17.54992264
 


--------------------------------------------------------------------------------------------------------


    POTLOK:  cpu time    0.3817: real time    0.3817


--------------------------------------------------------------------------------------------------------


     LOOP+:  cpu time   64.8823: real time   64.9564
    4ORBIT:  cpu time    0.0000: real time    0.0000
 


 total charge     
 
# of ion       s       p       d       tot
------------------------------------------
    1        0.745   0.965   0.000   1.711
    2        0.745   0.965   0.000   1.711
--------------------------------------------------
tot          1.491   1.931   0.000   3.421
 
 BZINTS: Fermi energy:    5.740729;    8.000000 electrons
         Band energy: 0.359858E+01;  BLOECHL correction:    0.000000

 total amount of memory used by VASP MPI-rank0    49229. kBytes
=======================================================================

   base      :      30000. kBytes
   nonl-proj :       7136. kBytes
   fftplans  :       3140. kBytes
   grid      :       1559. kBytes
   one-center:          3. kBytes
   wavefun   :       7391. kBytes
 
  
  
 General timing and accounting informations for this job:
 ========================================================
  
                  Total CPU time used (sec):       67.426
                            User time (sec):       67.207
                          System time (sec):        0.219
                         Elapsed time (sec):       67.794
  
                   Maximum memory used (kb):      133332.
                   Average memory used (kb):           0.
  
                          Minor page faults:        43828
                          Major page faults:            8
                 Voluntary context switches:         1516
