 vasp.6.1.2 22Jul20 (build Mar 11 2021 17:42:27) complex                        
  
 executed on             LinuxIFC date 2021.03.11  17:55:47
 running on   40 total cores
 distrk:  each k-point on   20 cores,    2 groups
 distr:  one band on NCORE=  10 cores,    2 groups


--------------------------------------------------------------------------------------------------------


 INCAR:
 POTCAR:    PAW_PBE Si 05Jan2001                  
 POTCAR:    PAW_PBE Si 05Jan2001                  
   VRHFIN =Si: s2p2                                                                                 
   LEXCH  = PE                                                                                      
   EATOM  =   103.0669 eV,    7.5752 Ry                                                             
                                                                                                    
   TITEL  = PAW_PBE Si 05Jan2001                                                                    
   LULTRA =        F    use ultrasoft PP ?                                                          
   IUNSCR =        1    unscreen: 0-lin 1-nonlin 2-no                                               
   RPACOR =    1.500    partial core radius                                                         
   POMASS =   28.085; ZVAL   =    4.000    mass and valenz                                          
   RCORE  =    1.900    outmost cutoff radius                                                       
   RWIGS  =    2.480; RWIGS  =    1.312    wigner-seitz radius (au A)                               
   ENMAX  =  245.345; ENMIN  =  184.009 eV                                                          
   ICORE  =        2    local potential                                                             
   LCOR   =        T    correct aug charges                                                         
   LPAW   =        T    paw PP                                                                      
   EAUG   =  322.069                                                                                
   DEXC   =    0.000                                                                                
   RMAX   =    1.950    core radius for proj-oper                                                   
   RAUG   =    1.300    factor for augmentation sphere                                              
   RDEP   =    1.993    radius for radial grids                                                     
   RDEPT  =    1.837    core radius for aug-charge                                                  
                                                                                                    
   Atomic configuration                                                                             
    6 entries                                                                                       
     n  l   j            E        occ.                                                              
     1  0  0.50     -1785.8828   2.0000                                                             
     2  0  0.50      -139.4969   2.0000                                                             
     2  1  1.50       -95.5546   6.0000                                                             
     3  0  0.50       -10.8127   2.0000                                                             
     3  1  0.50        -4.0811   2.0000                                                             
     3  2  1.50        -4.0817   0.0000                                                             
   Description                                                                                      
     l       E           TYP  RCUT    TYP  RCUT                                                     
     0    -10.8127223     23  1.900                                                                 
     0     -7.6451159     23  1.900                                                                 
     1     -4.0811372     23  1.900                                                                 
     1      2.4879257     23  1.900                                                                 
     2     -4.0817478      7  1.900                                                                 
  local pseudopotential read in
  partial core-charges read in
  partial kinetic energy density read in
  atomic valenz-charges read in
  non local Contribution for L=           0  read in
    real space projection operators read in
  non local Contribution for L=           0  read in
    real space projection operators read in
  non local Contribution for L=           1  read in
    real space projection operators read in
  non local Contribution for L=           1  read in
    real space projection operators read in
    PAW grid and wavefunctions read in
 
   number of l-projection  operators is LMAX  =           4
   number of lm-projection operators is LMMAX =           8
 
  PAW_PBE Si 05Jan2001                  :
 energy of atom  1       EATOM= -103.0669
 kinetic energy error for atom=    0.0002 (will be added to EATOM!!)
 
 
 POSCAR: Unknown
  positions in direct lattice
  No initial velocities read in

 METAGGA = R2SCA    LMAXTAU =  6    LMIXTAU =  T

 exchange correlation table for  LEXCH =        8
   RHO(1)=    0.500       N(1)  =     2000
   RHO(2)=  100.500       N(2)  =     4000
 


--------------------------------------------------------------------------------------------------------


 ion  position               nearest neighbor table
   1  0.875  0.875  0.875-   2 2.18   2 2.18   2 2.18   2 2.18
   2  0.125  0.125  0.125-   1 2.18   1 2.18   1 2.18   1 2.18
 
  LATTYP: Found a face centered cubic cell.
 ALAT       =     5.0300000000
  
  Lattice vectors:
  
 A1 = (   0.0000000000,   2.5150000000,   2.5150000000)
 A2 = (   2.5150000000,   0.0000000000,   2.5150000000)
 A3 = (   2.5150000000,   2.5150000000,   0.0000000000)


Analysis of symmetry for initial positions (statically):
=====================================================================
 Subroutine PRICEL returns:
 Original cell was already a primitive cell.
 

 Routine SETGRP: Setting up the symmetry group for a 
 face centered cubic supercell.


 Subroutine GETGRP returns: Found 48 space group operations
 (whereof 12 operations were pure point group operations)
 out of a pool of 48 trial point group operations.


The static configuration has the point symmetry D_3d.
 The point group associated with its full space group is O_h .


Analysis of symmetry for dynamics (positions and initial velocities):
=====================================================================
 Subroutine PRICEL returns:
 Original cell was already a primitive cell.
 

 Routine SETGRP: Setting up the symmetry group for a 
 face centered cubic supercell.


 Subroutine GETGRP returns: Found 48 space group operations
 (whereof 12 operations were pure point group operations)
 out of a pool of 48 trial point group operations.


The dynamic configuration has the point symmetry D_3d.
 The point group associated with its full space group is O_h .


 Subroutine INISYM returns: Found 48 space group operations
 (whereof 12 operations are pure point group operations),
 and found     1 'primitive' translations


----------------------------------------------------------------------------------------

                                     Primitive cell                                     

  volume of cell :      31.8159

  direct lattice vectors                    reciprocal lattice vectors
     0.000000000  2.515000000  2.515000000    -0.198807157  0.198807157  0.198807157
     2.515000000  0.000000000  2.515000000     0.198807157 -0.198807157  0.198807157
     2.515000000  2.515000000  0.000000000     0.198807157  0.198807157 -0.198807157

  length of vectors
     3.556747109  3.556747109  3.556747109     0.344344097  0.344344097  0.344344097

  position of ions in fractional coordinates (direct lattice)
     0.875000000  0.875000000  0.875000000
     0.125000000  0.125000000  0.125000000

  ion indices of the primitive-cell ions
   primitive index   ion index
                 1           1
                 2           2

----------------------------------------------------------------------------------------

 
 

Automatic generation of k-mesh.
 generate k-points for:   28   28   28
Space group operators:
 irot       det(A)        alpha          n_x          n_y          n_z        tau_x        tau_y        tau_z
    1     1.000000     0.000000     1.000000     0.000000     0.000000     0.000000     0.000000     0.000000
    2    -1.000000     0.000000     1.000000     0.000000     0.000000     0.000000     0.000000     0.000000
    3     1.000000   120.000000    -0.577350    -0.577350    -0.577350     0.000000     0.000000     0.000000
    4    -1.000000   120.000000    -0.577350    -0.577350    -0.577350     0.000000     0.000000     0.000000
    5     1.000000   120.000000     0.577350     0.577350     0.577350     0.000000     0.000000     0.000000
    6    -1.000000   120.000000     0.577350     0.577350     0.577350     0.000000     0.000000     0.000000
    7     1.000000   180.000000     0.000000    -0.707107     0.707107     0.000000     0.000000     0.000000
    8    -1.000000   180.000000     0.000000    -0.707107     0.707107     0.000000     0.000000     0.000000
    9     1.000000   180.000000     0.707107    -0.707107     0.000000     0.000000     0.000000     0.000000
   10    -1.000000   180.000000     0.707107    -0.707107     0.000000     0.000000     0.000000     0.000000
   11     1.000000   180.000000     0.707107     0.000000    -0.707107     0.000000     0.000000     0.000000
   12    -1.000000   180.000000     0.707107     0.000000    -0.707107     0.000000     0.000000     0.000000
   13     1.000000    90.000000     0.000000     0.000000    -1.000000    -0.500000     0.000000     0.000000
   14    -1.000000    90.000000     0.000000     0.000000    -1.000000    -0.500000     0.000000     0.000000
   15     1.000000   180.000000     0.000000     0.707107     0.707107    -0.500000     0.000000     0.000000
   16    -1.000000   180.000000     0.000000     0.707107     0.707107    -0.500000     0.000000     0.000000
   17     1.000000    90.000000     0.000000     1.000000     0.000000    -0.500000     0.000000     0.000000
   18    -1.000000    90.000000     0.000000     1.000000     0.000000    -0.500000     0.000000     0.000000
   19     1.000000   179.999999     0.000000     0.000000     1.000000     0.000000     0.000000    -0.500000
   20    -1.000000   179.999999     0.000000     0.000000     1.000000     0.000000     0.000000    -0.500000
   21     1.000000   120.000000    -0.577350     0.577350     0.577350     0.000000     0.000000    -0.500000
   22    -1.000000   120.000000    -0.577350     0.577350     0.577350     0.000000     0.000000    -0.500000
   23     1.000000   120.000000    -0.577350     0.577350    -0.577350     0.000000     0.000000    -0.500000
   24    -1.000000   120.000000    -0.577350     0.577350    -0.577350     0.000000     0.000000    -0.500000
   25     1.000000    90.000000     0.000000     0.000000     1.000000     0.000000    -0.500000     0.000000
   26    -1.000000    90.000000     0.000000     0.000000     1.000000     0.000000    -0.500000     0.000000
   27     1.000000    90.000000    -1.000000     0.000000     0.000000     0.000000    -0.500000     0.000000
   28    -1.000000    90.000000    -1.000000     0.000000     0.000000     0.000000    -0.500000     0.000000
   29     1.000000   180.000000     0.707107     0.000000     0.707107     0.000000    -0.500000     0.000000
   30    -1.000000   180.000000     0.707107     0.000000     0.707107     0.000000    -0.500000     0.000000
   31     1.000000   120.000000     0.577350    -0.577350     0.577350    -0.500000     0.000000     0.000000
   32    -1.000000   120.000000     0.577350    -0.577350     0.577350    -0.500000     0.000000     0.000000
   33     1.000000   120.000000    -0.577350    -0.577350     0.577350    -0.500000     0.000000     0.000000
   34    -1.000000   120.000000    -0.577350    -0.577350     0.577350    -0.500000     0.000000     0.000000
   35     1.000000   180.000000     1.000000     0.000000     0.000000    -0.500000     0.000000     0.000000
   36    -1.000000   180.000000     1.000000     0.000000     0.000000    -0.500000     0.000000     0.000000
   37     1.000000    90.000000     0.000000    -1.000000     0.000000     0.000000     0.000000    -0.500000
   38    -1.000000    90.000000     0.000000    -1.000000     0.000000     0.000000     0.000000    -0.500000
   39     1.000000   180.000000     0.707107     0.707107     0.000000     0.000000     0.000000    -0.500000
   40    -1.000000   180.000000     0.707107     0.707107     0.000000     0.000000     0.000000    -0.500000
   41     1.000000    90.000000     1.000000     0.000000     0.000000     0.000000     0.000000    -0.500000
   42    -1.000000    90.000000     1.000000     0.000000     0.000000     0.000000     0.000000    -0.500000
   43     1.000000   120.000000     0.577350    -0.577350    -0.577350     0.000000    -0.500000     0.000000
   44    -1.000000   120.000000     0.577350    -0.577350    -0.577350     0.000000    -0.500000     0.000000
   45     1.000000   180.000000     0.000000     1.000000     0.000000     0.000000    -0.500000     0.000000
   46    -1.000000   180.000000     0.000000     1.000000     0.000000     0.000000    -0.500000     0.000000
   47     1.000000   120.000000     0.577350     0.577350    -0.577350     0.000000    -0.500000     0.000000
   48    -1.000000   120.000000     0.577350     0.577350    -0.577350     0.000000    -0.500000     0.000000
 TETIRR: Found   2931 inequivalent tetrahedra from   131712
 
 Subroutine IBZKPT returns following result:
 ===========================================
 
 Found    624 irreducible k-points:
 
 Following reciprocal coordinates:
            Coordinates               Weight
  0.000000  0.000000  0.000000      1.000000
  0.035714  0.000000  0.000000      8.000000
  0.071429  0.000000  0.000000      8.000000
  0.107143  0.000000  0.000000      8.000000
  0.142857  0.000000  0.000000      8.000000
  0.178571  0.000000  0.000000      8.000000
  0.214286  0.000000  0.000000      8.000000
  0.250000  0.000000  0.000000      8.000000
  0.285714  0.000000  0.000000      8.000000
  0.321429  0.000000  0.000000      8.000000
  0.357143  0.000000  0.000000      8.000000
  0.392857  0.000000  0.000000      8.000000
  0.428571  0.000000  0.000000      8.000000
  0.464286  0.000000  0.000000      8.000000
  0.500000  0.000000  0.000000      4.000000
  0.035714  0.035714  0.000000      6.000000
  0.071429  0.035714  0.000000     24.000000
  0.107143  0.035714  0.000000     24.000000
  0.142857  0.035714  0.000000     24.000000
  0.178571  0.035714  0.000000     24.000000
  0.214286  0.035714  0.000000     24.000000
  0.250000  0.035714  0.000000     24.000000
  0.285714  0.035714  0.000000     24.000000
  0.321429  0.035714  0.000000     24.000000
  0.357143  0.035714  0.000000     24.000000
  0.392857  0.035714  0.000000     24.000000
  0.428571  0.035714  0.000000     24.000000
  0.464286  0.035714  0.000000     24.000000
  0.500000  0.035714  0.000000     24.000000
 -0.464286  0.035714  0.000000     24.000000
 -0.428571  0.035714  0.000000     24.000000
 -0.392857  0.035714  0.000000     24.000000
 -0.357143  0.035714  0.000000     24.000000
 -0.321429  0.035714  0.000000     24.000000
 -0.285714  0.035714  0.000000     24.000000
 -0.250000  0.035714  0.000000     24.000000
 -0.214286  0.035714  0.000000     24.000000
 -0.178571  0.035714  0.000000     24.000000
 -0.142857  0.035714  0.000000     24.000000
 -0.107143  0.035714  0.000000     24.000000
 -0.071429  0.035714  0.000000     24.000000
 -0.035714  0.035714  0.000000     12.000000
  0.071429  0.071429  0.000000      6.000000
  0.107143  0.071429  0.000000     24.000000
  0.142857  0.071429  0.000000     24.000000
  0.178571  0.071429  0.000000     24.000000
  0.214286  0.071429  0.000000     24.000000
  0.250000  0.071429  0.000000     24.000000
  0.285714  0.071429  0.000000     24.000000
  0.321429  0.071429  0.000000     24.000000
  0.357143  0.071429  0.000000     24.000000
  0.392857  0.071429  0.000000     24.000000
  0.428571  0.071429  0.000000     24.000000
  0.464286  0.071429  0.000000     24.000000
  0.500000  0.071429  0.000000     24.000000
 -0.464286  0.071429  0.000000     24.000000
 -0.428571  0.071429  0.000000     24.000000
 -0.392857  0.071429  0.000000     24.000000
 -0.357143  0.071429  0.000000     24.000000
 -0.321429  0.071429  0.000000     24.000000
 -0.285714  0.071429  0.000000     24.000000
 -0.250000  0.071429  0.000000     24.000000
 -0.214286  0.071429  0.000000     24.000000
 -0.178571  0.071429  0.000000     24.000000
 -0.142857  0.071429  0.000000     24.000000
 -0.107143  0.071429  0.000000     24.000000
 -0.071429  0.071429  0.000000     12.000000
  0.107143  0.107143  0.000000      6.000000
  0.142857  0.107143  0.000000     24.000000
  0.178571  0.107143  0.000000     24.000000
  0.214286  0.107143  0.000000     24.000000
  0.250000  0.107143  0.000000     24.000000
  0.285714  0.107143  0.000000     24.000000
  0.321429  0.107143  0.000000     24.000000
  0.357143  0.107143  0.000000     24.000000
  0.392857  0.107143  0.000000     24.000000
  0.428571  0.107143  0.000000     24.000000
  0.464286  0.107143  0.000000     24.000000
  0.500000  0.107143  0.000000     24.000000
 -0.464286  0.107143  0.000000     24.000000
 -0.428571  0.107143  0.000000     24.000000
 -0.392857  0.107143  0.000000     24.000000
 -0.357143  0.107143  0.000000     24.000000
 -0.321429  0.107143  0.000000     24.000000
 -0.285714  0.107143  0.000000     24.000000
 -0.250000  0.107143  0.000000     24.000000
 -0.214286  0.107143  0.000000     24.000000
 -0.178571  0.107143  0.000000     24.000000
 -0.142857  0.107143  0.000000     24.000000
 -0.107143  0.107143  0.000000     12.000000
  0.142857  0.142857  0.000000      6.000000
  0.178571  0.142857  0.000000     24.000000
  0.214286  0.142857  0.000000     24.000000
  0.250000  0.142857  0.000000     24.000000
  0.285714  0.142857  0.000000     24.000000
  0.321429  0.142857  0.000000     24.000000
  0.357143  0.142857  0.000000     24.000000
  0.392857  0.142857  0.000000     24.000000
  0.428571  0.142857  0.000000     24.000000
  0.464286  0.142857  0.000000     24.000000
  0.500000  0.142857  0.000000     24.000000
 -0.464286  0.142857  0.000000     24.000000
 -0.428571  0.142857  0.000000     24.000000
 -0.392857  0.142857  0.000000     24.000000
 -0.357143  0.142857  0.000000     24.000000
 -0.321429  0.142857  0.000000     24.000000
 -0.285714  0.142857  0.000000     24.000000
 -0.250000  0.142857  0.000000     24.000000
 -0.214286  0.142857  0.000000     24.000000
 -0.178571  0.142857  0.000000     24.000000
 -0.142857  0.142857  0.000000     12.000000
  0.178571  0.178571  0.000000      6.000000
  0.214286  0.178571  0.000000     24.000000
  0.250000  0.178571  0.000000     24.000000
  0.285714  0.178571  0.000000     24.000000
  0.321429  0.178571  0.000000     24.000000
  0.357143  0.178571  0.000000     24.000000
  0.392857  0.178571  0.000000     24.000000
  0.428571  0.178571  0.000000     24.000000
  0.464286  0.178571  0.000000     24.000000
  0.500000  0.178571  0.000000     24.000000
 -0.464286  0.178571  0.000000     24.000000
 -0.428571  0.178571  0.000000     24.000000
 -0.392857  0.178571  0.000000     24.000000
 -0.357143  0.178571  0.000000     24.000000
 -0.321429  0.178571  0.000000     24.000000
 -0.285714  0.178571  0.000000     24.000000
 -0.250000  0.178571  0.000000     24.000000
 -0.214286  0.178571  0.000000     24.000000
 -0.178571  0.178571  0.000000     12.000000
  0.214286  0.214286  0.000000      6.000000
  0.250000  0.214286  0.000000     24.000000
  0.285714  0.214286  0.000000     24.000000
  0.321429  0.214286  0.000000     24.000000
  0.357143  0.214286  0.000000     24.000000
  0.392857  0.214286  0.000000     24.000000
  0.428571  0.214286  0.000000     24.000000
  0.464286  0.214286  0.000000     24.000000
  0.500000  0.214286  0.000000     24.000000
 -0.464286  0.214286  0.000000     24.000000
 -0.428571  0.214286  0.000000     24.000000
 -0.392857  0.214286  0.000000     24.000000
 -0.357143  0.214286  0.000000     24.000000
 -0.321429  0.214286  0.000000     24.000000
 -0.285714  0.214286  0.000000     24.000000
 -0.250000  0.214286  0.000000     24.000000
 -0.214286  0.214286  0.000000     12.000000
  0.250000  0.250000  0.000000      6.000000
  0.285714  0.250000  0.000000     24.000000
  0.321429  0.250000  0.000000     24.000000
  0.357143  0.250000  0.000000     24.000000
  0.392857  0.250000  0.000000     24.000000
  0.428571  0.250000  0.000000     24.000000
  0.464286  0.250000  0.000000     24.000000
  0.500000  0.250000  0.000000     24.000000
 -0.464286  0.250000  0.000000     24.000000
 -0.428571  0.250000  0.000000     24.000000
 -0.392857  0.250000  0.000000     24.000000
 -0.357143  0.250000  0.000000     24.000000
 -0.321429  0.250000  0.000000     24.000000
 -0.285714  0.250000  0.000000     24.000000
 -0.250000  0.250000  0.000000     12.000000
  0.285714  0.285714  0.000000      6.000000
  0.321429  0.285714  0.000000     24.000000
  0.357143  0.285714  0.000000     24.000000
  0.392857  0.285714  0.000000     24.000000
  0.428571  0.285714  0.000000     24.000000
  0.464286  0.285714  0.000000     24.000000
  0.500000  0.285714  0.000000     24.000000
 -0.464286  0.285714  0.000000     24.000000
 -0.428571  0.285714  0.000000     24.000000
 -0.392857  0.285714  0.000000     24.000000
 -0.357143  0.285714  0.000000     24.000000
 -0.321429  0.285714  0.000000     24.000000
 -0.285714  0.285714  0.000000     12.000000
  0.321429  0.321429  0.000000      6.000000
  0.357143  0.321429  0.000000     24.000000
  0.392857  0.321429  0.000000     24.000000
  0.428571  0.321429  0.000000     24.000000
  0.464286  0.321429  0.000000     24.000000
  0.500000  0.321429  0.000000     24.000000
 -0.464286  0.321429  0.000000     24.000000
 -0.428571  0.321429  0.000000     24.000000
 -0.392857  0.321429  0.000000     24.000000
 -0.357143  0.321429  0.000000     24.000000
 -0.321429  0.321429  0.000000     12.000000
  0.357143  0.357143  0.000000      6.000000
  0.392857  0.357143  0.000000     24.000000
  0.428571  0.357143  0.000000     24.000000
  0.464286  0.357143  0.000000     24.000000
  0.500000  0.357143  0.000000     24.000000
 -0.464286  0.357143  0.000000     24.000000
 -0.428571  0.357143  0.000000     24.000000
 -0.392857  0.357143  0.000000     24.000000
 -0.357143  0.357143  0.000000     12.000000
  0.392857  0.392857  0.000000      6.000000
  0.428571  0.392857  0.000000     24.000000
  0.464286  0.392857  0.000000     24.000000
  0.500000  0.392857  0.000000     24.000000
 -0.464286  0.392857  0.000000     24.000000
 -0.428571  0.392857  0.000000     24.000000
 -0.392857  0.392857  0.000000     12.000000
  0.428571  0.428571  0.000000      6.000000
  0.464286  0.428571  0.000000     24.000000
  0.500000  0.428571  0.000000     24.000000
 -0.464286  0.428571  0.000000     24.000000
 -0.428571  0.428571  0.000000     12.000000
  0.464286  0.464286  0.000000      6.000000
  0.500000  0.464286  0.000000     24.000000
 -0.464286  0.464286  0.000000     12.000000
  0.500000  0.500000  0.000000      3.000000
  0.107143  0.071429  0.035714     24.000000
  0.142857  0.071429  0.035714     48.000000
  0.178571  0.071429  0.035714     48.000000
  0.214286  0.071429  0.035714     48.000000
  0.250000  0.071429  0.035714     48.000000
  0.285714  0.071429  0.035714     48.000000
  0.321429  0.071429  0.035714     48.000000
  0.357143  0.071429  0.035714     48.000000
  0.392857  0.071429  0.035714     48.000000
  0.428571  0.071429  0.035714     48.000000
  0.464286  0.071429  0.035714     48.000000
  0.500000  0.071429  0.035714     48.000000
 -0.464286  0.071429  0.035714     24.000000
  0.142857  0.107143  0.035714     24.000000
  0.178571  0.107143  0.035714     48.000000
  0.214286  0.107143  0.035714     48.000000
  0.250000  0.107143  0.035714     48.000000
  0.285714  0.107143  0.035714     48.000000
  0.321429  0.107143  0.035714     48.000000
  0.357143  0.107143  0.035714     48.000000
  0.392857  0.107143  0.035714     48.000000
  0.428571  0.107143  0.035714     48.000000
  0.464286  0.107143  0.035714     48.000000
  0.500000  0.107143  0.035714     48.000000
 -0.464286  0.107143  0.035714     48.000000
 -0.428571  0.107143  0.035714     48.000000
 -0.392857  0.107143  0.035714     48.000000
 -0.357143  0.107143  0.035714     48.000000
 -0.321429  0.107143  0.035714     48.000000
 -0.285714  0.107143  0.035714     48.000000
 -0.250000  0.107143  0.035714     48.000000
 -0.214286  0.107143  0.035714     48.000000
 -0.178571  0.107143  0.035714     48.000000
 -0.142857  0.107143  0.035714     48.000000
 -0.107143  0.107143  0.035714     48.000000
 -0.071429  0.107143  0.035714     24.000000
  0.178571  0.142857  0.035714     24.000000
  0.214286  0.142857  0.035714     48.000000
  0.250000  0.142857  0.035714     48.000000
  0.285714  0.142857  0.035714     48.000000
  0.321429  0.142857  0.035714     48.000000
  0.357143  0.142857  0.035714     48.000000
  0.392857  0.142857  0.035714     48.000000
  0.428571  0.142857  0.035714     48.000000
  0.464286  0.142857  0.035714     48.000000
  0.500000  0.142857  0.035714     48.000000
 -0.464286  0.142857  0.035714     48.000000
 -0.428571  0.142857  0.035714     48.000000
 -0.392857  0.142857  0.035714     48.000000
 -0.357143  0.142857  0.035714     48.000000
 -0.321429  0.142857  0.035714     48.000000
 -0.285714  0.142857  0.035714     48.000000
 -0.250000  0.142857  0.035714     48.000000
 -0.214286  0.142857  0.035714     48.000000
 -0.178571  0.142857  0.035714     48.000000
 -0.142857  0.142857  0.035714     48.000000
 -0.107143  0.142857  0.035714     24.000000
  0.214286  0.178571  0.035714     24.000000
  0.250000  0.178571  0.035714     48.000000
  0.285714  0.178571  0.035714     48.000000
  0.321429  0.178571  0.035714     48.000000
  0.357143  0.178571  0.035714     48.000000
  0.392857  0.178571  0.035714     48.000000
  0.428571  0.178571  0.035714     48.000000
  0.464286  0.178571  0.035714     48.000000
  0.500000  0.178571  0.035714     48.000000
 -0.464286  0.178571  0.035714     48.000000
 -0.428571  0.178571  0.035714     48.000000
 -0.392857  0.178571  0.035714     48.000000
 -0.357143  0.178571  0.035714     48.000000
 -0.321429  0.178571  0.035714     48.000000
 -0.285714  0.178571  0.035714     48.000000
 -0.250000  0.178571  0.035714     48.000000
 -0.214286  0.178571  0.035714     48.000000
 -0.178571  0.178571  0.035714     48.000000
 -0.142857  0.178571  0.035714     24.000000
  0.250000  0.214286  0.035714     24.000000
  0.285714  0.214286  0.035714     48.000000
  0.321429  0.214286  0.035714     48.000000
  0.357143  0.214286  0.035714     48.000000
  0.392857  0.214286  0.035714     48.000000
  0.428571  0.214286  0.035714     48.000000
  0.464286  0.214286  0.035714     48.000000
  0.500000  0.214286  0.035714     48.000000
 -0.464286  0.214286  0.035714     48.000000
 -0.428571  0.214286  0.035714     48.000000
 -0.392857  0.214286  0.035714     48.000000
 -0.357143  0.214286  0.035714     48.000000
 -0.321429  0.214286  0.035714     48.000000
 -0.285714  0.214286  0.035714     48.000000
 -0.250000  0.214286  0.035714     48.000000
 -0.214286  0.214286  0.035714     48.000000
 -0.178571  0.214286  0.035714     24.000000
  0.285714  0.250000  0.035714     24.000000
  0.321429  0.250000  0.035714     48.000000
  0.357143  0.250000  0.035714     48.000000
  0.392857  0.250000  0.035714     48.000000
  0.428571  0.250000  0.035714     48.000000
  0.464286  0.250000  0.035714     48.000000
  0.500000  0.250000  0.035714     48.000000
 -0.464286  0.250000  0.035714     48.000000
 -0.428571  0.250000  0.035714     48.000000
 -0.392857  0.250000  0.035714     48.000000
 -0.357143  0.250000  0.035714     48.000000
 -0.321429  0.250000  0.035714     48.000000
 -0.285714  0.250000  0.035714     48.000000
 -0.250000  0.250000  0.035714     48.000000
 -0.214286  0.250000  0.035714     24.000000
  0.321429  0.285714  0.035714     24.000000
  0.357143  0.285714  0.035714     48.000000
  0.392857  0.285714  0.035714     48.000000
  0.428571  0.285714  0.035714     48.000000
  0.464286  0.285714  0.035714     48.000000
  0.500000  0.285714  0.035714     48.000000
 -0.464286  0.285714  0.035714     48.000000
 -0.428571  0.285714  0.035714     48.000000
 -0.392857  0.285714  0.035714     48.000000
 -0.357143  0.285714  0.035714     48.000000
 -0.321429  0.285714  0.035714     48.000000
 -0.285714  0.285714  0.035714     48.000000
 -0.250000  0.285714  0.035714     24.000000
  0.357143  0.321429  0.035714     24.000000
  0.392857  0.321429  0.035714     48.000000
  0.428571  0.321429  0.035714     48.000000
  0.464286  0.321429  0.035714     48.000000
  0.500000  0.321429  0.035714     48.000000
 -0.464286  0.321429  0.035714     48.000000
 -0.428571  0.321429  0.035714     48.000000
 -0.392857  0.321429  0.035714     48.000000
 -0.357143  0.321429  0.035714     48.000000
 -0.321429  0.321429  0.035714     48.000000
 -0.285714  0.321429  0.035714     24.000000
  0.392857  0.357143  0.035714     24.000000
  0.428571  0.357143  0.035714     48.000000
  0.464286  0.357143  0.035714     48.000000
  0.500000  0.357143  0.035714     48.000000
 -0.464286  0.357143  0.035714     48.000000
 -0.428571  0.357143  0.035714     48.000000
 -0.392857  0.357143  0.035714     48.000000
 -0.357143  0.357143  0.035714     48.000000
 -0.321429  0.357143  0.035714     24.000000
  0.428571  0.392857  0.035714     24.000000
  0.464286  0.392857  0.035714     48.000000
  0.500000  0.392857  0.035714     48.000000
 -0.464286  0.392857  0.035714     48.000000
 -0.428571  0.392857  0.035714     48.000000
 -0.392857  0.392857  0.035714     48.000000
 -0.357143  0.392857  0.035714     24.000000
  0.464286  0.428571  0.035714     24.000000
  0.500000  0.428571  0.035714     48.000000
 -0.464286  0.428571  0.035714     48.000000
 -0.428571  0.428571  0.035714     48.000000
 -0.392857  0.428571  0.035714     24.000000
  0.500000  0.464286  0.035714     24.000000
 -0.464286  0.464286  0.035714     48.000000
 -0.428571  0.464286  0.035714     24.000000
 -0.464286  0.500000  0.035714     12.000000
  0.214286  0.142857  0.071429     24.000000
  0.250000  0.142857  0.071429     48.000000
  0.285714  0.142857  0.071429     48.000000
  0.321429  0.142857  0.071429     48.000000
  0.357143  0.142857  0.071429     48.000000
  0.392857  0.142857  0.071429     48.000000
  0.428571  0.142857  0.071429     48.000000
  0.464286  0.142857  0.071429     48.000000
  0.500000  0.142857  0.071429     48.000000
 -0.464286  0.142857  0.071429     48.000000
 -0.428571  0.142857  0.071429     24.000000
  0.250000  0.178571  0.071429     24.000000
  0.285714  0.178571  0.071429     48.000000
  0.321429  0.178571  0.071429     48.000000
  0.357143  0.178571  0.071429     48.000000
  0.392857  0.178571  0.071429     48.000000
  0.428571  0.178571  0.071429     48.000000
  0.464286  0.178571  0.071429     48.000000
  0.500000  0.178571  0.071429     48.000000
 -0.464286  0.178571  0.071429     48.000000
 -0.428571  0.178571  0.071429     48.000000
 -0.392857  0.178571  0.071429     48.000000
 -0.357143  0.178571  0.071429     48.000000
 -0.321429  0.178571  0.071429     48.000000
 -0.285714  0.178571  0.071429     48.000000
 -0.250000  0.178571  0.071429     48.000000
 -0.214286  0.178571  0.071429     48.000000
 -0.178571  0.178571  0.071429     48.000000
 -0.142857  0.178571  0.071429     48.000000
 -0.107143  0.178571  0.071429     24.000000
  0.285714  0.214286  0.071429     24.000000
  0.321429  0.214286  0.071429     48.000000
  0.357143  0.214286  0.071429     48.000000
  0.392857  0.214286  0.071429     48.000000
  0.428571  0.214286  0.071429     48.000000
  0.464286  0.214286  0.071429     48.000000
  0.500000  0.214286  0.071429     48.000000
 -0.464286  0.214286  0.071429     48.000000
 -0.428571  0.214286  0.071429     48.000000
 -0.392857  0.214286  0.071429     48.000000
 -0.357143  0.214286  0.071429     48.000000
 -0.321429  0.214286  0.071429     48.000000
 -0.285714  0.214286  0.071429     48.000000
 -0.250000  0.214286  0.071429     48.000000
 -0.214286  0.214286  0.071429     48.000000
 -0.178571  0.214286  0.071429     48.000000
 -0.142857  0.214286  0.071429     24.000000
  0.321429  0.250000  0.071429     24.000000
  0.357143  0.250000  0.071429     48.000000
  0.392857  0.250000  0.071429     48.000000
  0.428571  0.250000  0.071429     48.000000
  0.464286  0.250000  0.071429     48.000000
  0.500000  0.250000  0.071429     48.000000
 -0.464286  0.250000  0.071429     48.000000
 -0.428571  0.250000  0.071429     48.000000
 -0.392857  0.250000  0.071429     48.000000
 -0.357143  0.250000  0.071429     48.000000
 -0.321429  0.250000  0.071429     48.000000
 -0.285714  0.250000  0.071429     48.000000
 -0.250000  0.250000  0.071429     48.000000
 -0.214286  0.250000  0.071429     48.000000
 -0.178571  0.250000  0.071429     24.000000
  0.357143  0.285714  0.071429     24.000000
  0.392857  0.285714  0.071429     48.000000
  0.428571  0.285714  0.071429     48.000000
  0.464286  0.285714  0.071429     48.000000
  0.500000  0.285714  0.071429     48.000000
 -0.464286  0.285714  0.071429     48.000000
 -0.428571  0.285714  0.071429     48.000000
 -0.392857  0.285714  0.071429     48.000000
 -0.357143  0.285714  0.071429     48.000000
 -0.321429  0.285714  0.071429     48.000000
 -0.285714  0.285714  0.071429     48.000000
 -0.250000  0.285714  0.071429     48.000000
 -0.214286  0.285714  0.071429     24.000000
  0.392857  0.321429  0.071429     24.000000
  0.428571  0.321429  0.071429     48.000000
  0.464286  0.321429  0.071429     48.000000
  0.500000  0.321429  0.071429     48.000000
 -0.464286  0.321429  0.071429     48.000000
 -0.428571  0.321429  0.071429     48.000000
 -0.392857  0.321429  0.071429     48.000000
 -0.357143  0.321429  0.071429     48.000000
 -0.321429  0.321429  0.071429     48.000000
 -0.285714  0.321429  0.071429     48.000000
 -0.250000  0.321429  0.071429     24.000000
  0.428571  0.357143  0.071429     24.000000
  0.464286  0.357143  0.071429     48.000000
  0.500000  0.357143  0.071429     48.000000
 -0.464286  0.357143  0.071429     48.000000
 -0.428571  0.357143  0.071429     48.000000
 -0.392857  0.357143  0.071429     48.000000
 -0.357143  0.357143  0.071429     48.000000
 -0.321429  0.357143  0.071429     48.000000
 -0.285714  0.357143  0.071429     24.000000
  0.464286  0.392857  0.071429     24.000000
  0.500000  0.392857  0.071429     48.000000
 -0.464286  0.392857  0.071429     48.000000
 -0.428571  0.392857  0.071429     48.000000
 -0.392857  0.392857  0.071429     48.000000
 -0.357143  0.392857  0.071429     48.000000
 -0.321429  0.392857  0.071429     24.000000
  0.500000  0.428571  0.071429     24.000000
 -0.464286  0.428571  0.071429     48.000000
 -0.428571  0.428571  0.071429     48.000000
 -0.392857  0.428571  0.071429     48.000000
 -0.357143  0.428571  0.071429     24.000000
 -0.464286  0.464286  0.071429     24.000000
 -0.428571  0.464286  0.071429     48.000000
 -0.392857  0.464286  0.071429     24.000000
 -0.428571  0.500000  0.071429     12.000000
  0.321429  0.214286  0.107143     24.000000
  0.357143  0.214286  0.107143     48.000000
  0.392857  0.214286  0.107143     48.000000
  0.428571  0.214286  0.107143     48.000000
  0.464286  0.214286  0.107143     48.000000
  0.500000  0.214286  0.107143     48.000000
 -0.464286  0.214286  0.107143     48.000000
 -0.428571  0.214286  0.107143     48.000000
 -0.392857  0.214286  0.107143     24.000000
  0.357143  0.250000  0.107143     24.000000
  0.392857  0.250000  0.107143     48.000000
  0.428571  0.250000  0.107143     48.000000
  0.464286  0.250000  0.107143     48.000000
  0.500000  0.250000  0.107143     48.000000
 -0.464286  0.250000  0.107143     48.000000
 -0.428571  0.250000  0.107143     48.000000
 -0.392857  0.250000  0.107143     48.000000
 -0.357143  0.250000  0.107143     48.000000
 -0.321429  0.250000  0.107143     48.000000
 -0.285714  0.250000  0.107143     48.000000
 -0.250000  0.250000  0.107143     48.000000
 -0.214286  0.250000  0.107143     48.000000
 -0.178571  0.250000  0.107143     48.000000
 -0.142857  0.250000  0.107143     24.000000
  0.392857  0.285714  0.107143     24.000000
  0.428571  0.285714  0.107143     48.000000
  0.464286  0.285714  0.107143     48.000000
  0.500000  0.285714  0.107143     48.000000
 -0.464286  0.285714  0.107143     48.000000
 -0.428571  0.285714  0.107143     48.000000
 -0.392857  0.285714  0.107143     48.000000
 -0.357143  0.285714  0.107143     48.000000
 -0.321429  0.285714  0.107143     48.000000
 -0.285714  0.285714  0.107143     48.000000
 -0.250000  0.285714  0.107143     48.000000
 -0.214286  0.285714  0.107143     48.000000
 -0.178571  0.285714  0.107143     24.000000
  0.428571  0.321429  0.107143     24.000000
  0.464286  0.321429  0.107143     48.000000
  0.500000  0.321429  0.107143     48.000000
 -0.464286  0.321429  0.107143     48.000000
 -0.428571  0.321429  0.107143     48.000000
 -0.392857  0.321429  0.107143     48.000000
 -0.357143  0.321429  0.107143     48.000000
 -0.321429  0.321429  0.107143     48.000000
 -0.285714  0.321429  0.107143     48.000000
 -0.250000  0.321429  0.107143     48.000000
 -0.214286  0.321429  0.107143     24.000000
  0.464286  0.357143  0.107143     24.000000
  0.500000  0.357143  0.107143     48.000000
 -0.464286  0.357143  0.107143     48.000000
 -0.428571  0.357143  0.107143     48.000000
 -0.392857  0.357143  0.107143     48.000000
 -0.357143  0.357143  0.107143     48.000000
 -0.321429  0.357143  0.107143     48.000000
 -0.285714  0.357143  0.107143     48.000000
 -0.250000  0.357143  0.107143     24.000000
  0.500000  0.392857  0.107143     24.000000
 -0.464286  0.392857  0.107143     48.000000
 -0.428571  0.392857  0.107143     48.000000
 -0.392857  0.392857  0.107143     48.000000
 -0.357143  0.392857  0.107143     48.000000
 -0.321429  0.392857  0.107143     48.000000
 -0.285714  0.392857  0.107143     24.000000
 -0.464286  0.428571  0.107143     24.000000
 -0.428571  0.428571  0.107143     48.000000
 -0.392857  0.428571  0.107143     48.000000
 -0.357143  0.428571  0.107143     48.000000
 -0.321429  0.428571  0.107143     24.000000
 -0.428571  0.464286  0.107143     24.000000
 -0.392857  0.464286  0.107143     48.000000
 -0.357143  0.464286  0.107143     24.000000
 -0.392857  0.500000  0.107143     12.000000
  0.428571  0.285714  0.142857     24.000000
  0.464286  0.285714  0.142857     48.000000
  0.500000  0.285714  0.142857     48.000000
 -0.464286  0.285714  0.142857     48.000000
 -0.428571  0.285714  0.142857     48.000000
 -0.392857  0.285714  0.142857     48.000000
 -0.357143  0.285714  0.142857     24.000000
  0.464286  0.321429  0.142857     24.000000
  0.500000  0.321429  0.142857     48.000000
 -0.464286  0.321429  0.142857     48.000000
 -0.428571  0.321429  0.142857     48.000000
 -0.392857  0.321429  0.142857     48.000000
 -0.357143  0.321429  0.142857     48.000000
 -0.321429  0.321429  0.142857     48.000000
 -0.285714  0.321429  0.142857     48.000000
 -0.250000  0.321429  0.142857     48.000000
 -0.214286  0.321429  0.142857     48.000000
 -0.178571  0.321429  0.142857     24.000000
  0.500000  0.357143  0.142857     24.000000
 -0.464286  0.357143  0.142857     48.000000
 -0.428571  0.357143  0.142857     48.000000
 -0.392857  0.357143  0.142857     48.000000
 -0.357143  0.357143  0.142857     48.000000
 -0.321429  0.357143  0.142857     48.000000
 -0.285714  0.357143  0.142857     48.000000
 -0.250000  0.357143  0.142857     48.000000
 -0.214286  0.357143  0.142857     24.000000
 -0.464286  0.392857  0.142857     24.000000
 -0.428571  0.392857  0.142857     48.000000
 -0.392857  0.392857  0.142857     48.000000
 -0.357143  0.392857  0.142857     48.000000
 -0.321429  0.392857  0.142857     48.000000
 -0.285714  0.392857  0.142857     48.000000
 -0.250000  0.392857  0.142857     24.000000
 -0.428571  0.428571  0.142857     24.000000
 -0.392857  0.428571  0.142857     48.000000
 -0.357143  0.428571  0.142857     48.000000
 -0.321429  0.428571  0.142857     48.000000
 -0.285714  0.428571  0.142857     24.000000
 -0.392857  0.464286  0.142857     24.000000
 -0.357143  0.464286  0.142857     48.000000
 -0.321429  0.464286  0.142857     24.000000
 -0.357143  0.500000  0.142857     12.000000
 -0.464286  0.357143  0.178571     24.000000
 -0.428571  0.357143  0.178571     48.000000
 -0.392857  0.357143  0.178571     48.000000
 -0.357143  0.357143  0.178571     48.000000
 -0.321429  0.357143  0.178571     24.000000
 -0.428571  0.392857  0.178571     24.000000
 -0.392857  0.392857  0.178571     48.000000
 -0.357143  0.392857  0.178571     48.000000
 -0.321429  0.392857  0.178571     48.000000
 -0.285714  0.392857  0.178571     48.000000
 -0.250000  0.392857  0.178571     48.000000
 -0.214286  0.392857  0.178571     24.000000
 -0.392857  0.428571  0.178571     24.000000
 -0.357143  0.428571  0.178571     48.000000
 -0.321429  0.428571  0.178571     48.000000
 -0.285714  0.428571  0.178571     48.000000
 -0.250000  0.428571  0.178571     24.000000
 -0.357143  0.464286  0.178571     24.000000
 -0.321429  0.464286  0.178571     48.000000
 -0.285714  0.464286  0.178571     24.000000
 -0.321429  0.500000  0.178571     12.000000
 -0.357143  0.428571  0.214286     24.000000
 -0.321429  0.428571  0.214286     48.000000
 -0.285714  0.428571  0.214286     24.000000
 -0.321429  0.464286  0.214286     24.000000
 -0.285714  0.464286  0.214286     48.000000
 -0.250000  0.464286  0.214286     24.000000
 -0.285714  0.500000  0.214286     12.000000
 -0.250000  0.500000  0.250000      6.000000
 
 Following cartesian coordinates:
            Coordinates               Weight
  0.000000  0.000000  0.000000      1.000000
 -0.035714  0.035714  0.035714      8.000000
 -0.071429  0.071429  0.071429      8.000000
 -0.107143  0.107143  0.107143      8.000000
 -0.142857  0.142857  0.142857      8.000000
 -0.178571  0.178571  0.178571      8.000000
 -0.214286  0.214286  0.214286      8.000000
 -0.250000  0.250000  0.250000      8.000000
 -0.285714  0.285714  0.285714      8.000000
 -0.321429  0.321429  0.321429      8.000000
 -0.357143  0.357143  0.357143      8.000000
 -0.392857  0.392857  0.392857      8.000000
 -0.428571  0.428571  0.428571      8.000000
 -0.464286  0.464286  0.464286      8.000000
 -0.500000  0.500000  0.500000      4.000000
  0.000000  0.000000  0.071429      6.000000
 -0.035714  0.035714  0.107143     24.000000
 -0.071429  0.071429  0.142857     24.000000
 -0.107143  0.107143  0.178571     24.000000
 -0.142857  0.142857  0.214286     24.000000
 -0.178571  0.178571  0.250000     24.000000
 -0.214286  0.214286  0.285714     24.000000
 -0.250000  0.250000  0.321429     24.000000
 -0.285714  0.285714  0.357143     24.000000
 -0.321429  0.321429  0.392857     24.000000
 -0.357143  0.357143  0.428571     24.000000
 -0.392857  0.392857  0.464286     24.000000
 -0.428571  0.428571  0.500000     24.000000
 -0.464286  0.464286  0.535714     24.000000
  0.500000 -0.500000 -0.428571     24.000000
  0.464286 -0.464286 -0.392857     24.000000
  0.428571 -0.428571 -0.357143     24.000000
  0.392857 -0.392857 -0.321429     24.000000
  0.357143 -0.357143 -0.285714     24.000000
  0.321429 -0.321429 -0.250000     24.000000
  0.285714 -0.285714 -0.214286     24.000000
  0.250000 -0.250000 -0.178571     24.000000
  0.214286 -0.214286 -0.142857     24.000000
  0.178571 -0.178571 -0.107143     24.000000
  0.142857 -0.142857 -0.071429     24.000000
  0.107143 -0.107143 -0.035714     24.000000
  0.071429 -0.071429  0.000000     12.000000
  0.000000  0.000000  0.142857      6.000000
 -0.035714  0.035714  0.178571     24.000000
 -0.071429  0.071429  0.214286     24.000000
 -0.107143  0.107143  0.250000     24.000000
 -0.142857  0.142857  0.285714     24.000000
 -0.178571  0.178571  0.321429     24.000000
 -0.214286  0.214286  0.357143     24.000000
 -0.250000  0.250000  0.392857     24.000000
 -0.285714  0.285714  0.428571     24.000000
 -0.321429  0.321429  0.464286     24.000000
 -0.357143  0.357143  0.500000     24.000000
 -0.392857  0.392857  0.535714     24.000000
 -0.428571  0.428571  0.571429     24.000000
  0.535714 -0.535714 -0.392857     24.000000
  0.500000 -0.500000 -0.357143     24.000000
  0.464286 -0.464286 -0.321429     24.000000
  0.428571 -0.428571 -0.285714     24.000000
  0.392857 -0.392857 -0.250000     24.000000
  0.357143 -0.357143 -0.214286     24.000000
  0.321429 -0.321429 -0.178571     24.000000
  0.285714 -0.285714 -0.142857     24.000000
  0.250000 -0.250000 -0.107143     24.000000
  0.214286 -0.214286 -0.071429     24.000000
  0.178571 -0.178571 -0.035714     24.000000
  0.142857 -0.142857  0.000000     12.000000
  0.000000  0.000000  0.214286      6.000000
 -0.035714  0.035714  0.250000     24.000000
 -0.071429  0.071429  0.285714     24.000000
 -0.107143  0.107143  0.321429     24.000000
 -0.142857  0.142857  0.357143     24.000000
 -0.178571  0.178571  0.392857     24.000000
 -0.214286  0.214286  0.428571     24.000000
 -0.250000  0.250000  0.464286     24.000000
 -0.285714  0.285714  0.500000     24.000000
 -0.321429  0.321429  0.535714     24.000000
 -0.357143  0.357143  0.571429     24.000000
 -0.392857  0.392857  0.607143     24.000000
  0.571429 -0.571429 -0.357143     24.000000
  0.535714 -0.535714 -0.321429     24.000000
  0.500000 -0.500000 -0.285714     24.000000
  0.464286 -0.464286 -0.250000     24.000000
  0.428571 -0.428571 -0.214286     24.000000
  0.392857 -0.392857 -0.178571     24.000000
  0.357143 -0.357143 -0.142857     24.000000
  0.321429 -0.321429 -0.107143     24.000000
  0.285714 -0.285714 -0.071429     24.000000
  0.250000 -0.250000 -0.035714     24.000000
  0.214286 -0.214286  0.000000     12.000000
  0.000000  0.000000  0.285714      6.000000
 -0.035714  0.035714  0.321429     24.000000
 -0.071429  0.071429  0.357143     24.000000
 -0.107143  0.107143  0.392857     24.000000
 -0.142857  0.142857  0.428571     24.000000
 -0.178571  0.178571  0.464286     24.000000
 -0.214286  0.214286  0.500000     24.000000
 -0.250000  0.250000  0.535714     24.000000
 -0.285714  0.285714  0.571429     24.000000
 -0.321429  0.321429  0.607143     24.000000
 -0.357143  0.357143  0.642857     24.000000
  0.607143 -0.607143 -0.321429     24.000000
  0.571429 -0.571429 -0.285714     24.000000
  0.535714 -0.535714 -0.250000     24.000000
  0.500000 -0.500000 -0.214286     24.000000
  0.464286 -0.464286 -0.178571     24.000000
  0.428571 -0.428571 -0.142857     24.000000
  0.392857 -0.392857 -0.107143     24.000000
  0.357143 -0.357143 -0.071429     24.000000
  0.321429 -0.321429 -0.035714     24.000000
  0.285714 -0.285714  0.000000     12.000000
  0.000000  0.000000  0.357143      6.000000
 -0.035714  0.035714  0.392857     24.000000
 -0.071429  0.071429  0.428571     24.000000
 -0.107143  0.107143  0.464286     24.000000
 -0.142857  0.142857  0.500000     24.000000
 -0.178571  0.178571  0.535714     24.000000
 -0.214286  0.214286  0.571429     24.000000
 -0.250000  0.250000  0.607143     24.000000
 -0.285714  0.285714  0.642857     24.000000
 -0.321429  0.321429  0.678571     24.000000
  0.642857 -0.642857 -0.285714     24.000000
  0.607143 -0.607143 -0.250000     24.000000
  0.571429 -0.571429 -0.214286     24.000000
  0.535714 -0.535714 -0.178571     24.000000
  0.500000 -0.500000 -0.142857     24.000000
  0.464286 -0.464286 -0.107143     24.000000
  0.428571 -0.428571 -0.071429     24.000000
  0.392857 -0.392857 -0.035714     24.000000
  0.357143 -0.357143  0.000000     12.000000
  0.000000  0.000000  0.428571      6.000000
 -0.035714  0.035714  0.464286     24.000000
 -0.071429  0.071429  0.500000     24.000000
 -0.107143  0.107143  0.535714     24.000000
 -0.142857  0.142857  0.571429     24.000000
 -0.178571  0.178571  0.607143     24.000000
 -0.214286  0.214286  0.642857     24.000000
 -0.250000  0.250000  0.678571     24.000000
 -0.285714  0.285714  0.714286     24.000000
  0.678571 -0.678571 -0.250000     24.000000
  0.642857 -0.642857 -0.214286     24.000000
  0.607143 -0.607143 -0.178571     24.000000
  0.571429 -0.571429 -0.142857     24.000000
  0.535714 -0.535714 -0.107143     24.000000
  0.500000 -0.500000 -0.071429     24.000000
  0.464286 -0.464286 -0.035714     24.000000
  0.428571 -0.428571  0.000000     12.000000
  0.000000  0.000000  0.500000      6.000000
 -0.035714  0.035714  0.535714     24.000000
 -0.071429  0.071429  0.571429     24.000000
 -0.107143  0.107143  0.607143     24.000000
 -0.142857  0.142857  0.642857     24.000000
 -0.178571  0.178571  0.678571     24.000000
 -0.214286  0.214286  0.714286     24.000000
 -0.250000  0.250000  0.750000     24.000000
  0.714286 -0.714286 -0.214286     24.000000
  0.678571 -0.678571 -0.178571     24.000000
  0.642857 -0.642857 -0.142857     24.000000
  0.607143 -0.607143 -0.107143     24.000000
  0.571429 -0.571429 -0.071429     24.000000
  0.535714 -0.535714 -0.035714     24.000000
  0.500000 -0.500000  0.000000     12.000000
  0.000000  0.000000  0.571429      6.000000
 -0.035714  0.035714  0.607143     24.000000
 -0.071429  0.071429  0.642857     24.000000
 -0.107143  0.107143  0.678571     24.000000
 -0.142857  0.142857  0.714286     24.000000
 -0.178571  0.178571  0.750000     24.000000
 -0.214286  0.214286  0.785714     24.000000
  0.750000 -0.750000 -0.178571     24.000000
  0.714286 -0.714286 -0.142857     24.000000
  0.678571 -0.678571 -0.107143     24.000000
  0.642857 -0.642857 -0.071429     24.000000
  0.607143 -0.607143 -0.035714     24.000000
  0.571429 -0.571429  0.000000     12.000000
  0.000000  0.000000  0.642857      6.000000
 -0.035714  0.035714  0.678571     24.000000
 -0.071429  0.071429  0.714286     24.000000
 -0.107143  0.107143  0.750000     24.000000
 -0.142857  0.142857  0.785714     24.000000
 -0.178571  0.178571  0.821429     24.000000
  0.785714 -0.785714 -0.142857     24.000000
  0.750000 -0.750000 -0.107143     24.000000
  0.714286 -0.714286 -0.071429     24.000000
  0.678571 -0.678571 -0.035714     24.000000
  0.642857 -0.642857  0.000000     12.000000
  0.000000  0.000000  0.714286      6.000000
 -0.035714  0.035714  0.750000     24.000000
 -0.071429  0.071429  0.785714     24.000000
 -0.107143  0.107143  0.821429     24.000000
 -0.142857  0.142857  0.857143     24.000000
  0.821429 -0.821429 -0.107143     24.000000
  0.785714 -0.785714 -0.071429     24.000000
  0.750000 -0.750000 -0.035714     24.000000
  0.714286 -0.714286  0.000000     12.000000
  0.000000  0.000000  0.785714      6.000000
 -0.035714  0.035714  0.821429     24.000000
 -0.071429  0.071429  0.857143     24.000000
 -0.107143  0.107143  0.892857     24.000000
  0.857143 -0.857143 -0.071429     24.000000
  0.821429 -0.821429 -0.035714     24.000000
  0.785714 -0.785714  0.000000     12.000000
  0.000000  0.000000  0.857143      6.000000
 -0.035714  0.035714  0.892857     24.000000
 -0.071429  0.071429  0.928571     24.000000
  0.892857 -0.892857 -0.035714     24.000000
  0.857143 -0.857143  0.000000     12.000000
  0.000000  0.000000  0.928571      6.000000
 -0.035714  0.035714  0.964286     24.000000
  0.928571 -0.928571  0.000000     12.000000
  0.000000  0.000000  1.000000      3.000000
 -0.000000  0.071429  0.142857     24.000000
 -0.035714  0.107143  0.178571     48.000000
 -0.071429  0.142857  0.214286     48.000000
 -0.107143  0.178571  0.250000     48.000000
 -0.142857  0.214286  0.285714     48.000000
 -0.178571  0.250000  0.321429     48.000000
 -0.214286  0.285714  0.357143     48.000000
 -0.250000  0.321429  0.392857     48.000000
 -0.285714  0.357143  0.428571     48.000000
 -0.321429  0.392857  0.464286     48.000000
 -0.357143  0.428571  0.500000     48.000000
 -0.392857  0.464286  0.535714     48.000000
  0.571429 -0.500000 -0.428571     24.000000
 -0.000000  0.071429  0.214286     24.000000
 -0.035714  0.107143  0.250000     48.000000
 -0.071429  0.142857  0.285714     48.000000
 -0.107143  0.178571  0.321429     48.000000
 -0.142857  0.214286  0.357143     48.000000
 -0.178571  0.250000  0.392857     48.000000
 -0.214286  0.285714  0.428571     48.000000
 -0.250000  0.321429  0.464286     48.000000
 -0.285714  0.357143  0.500000     48.000000
 -0.321429  0.392857  0.535714     48.000000
 -0.357143  0.428571  0.571429     48.000000
  0.607143 -0.535714 -0.392857     48.000000
  0.571429 -0.500000 -0.357143     48.000000
  0.535714 -0.464286 -0.321429     48.000000
  0.500000 -0.428571 -0.285714     48.000000
  0.464286 -0.392857 -0.250000     48.000000
  0.428571 -0.357143 -0.214286     48.000000
  0.392857 -0.321429 -0.178571     48.000000
  0.357143 -0.285714 -0.142857     48.000000
  0.321429 -0.250000 -0.107143     48.000000
  0.285714 -0.214286 -0.071429     48.000000
  0.250000 -0.178571 -0.035714     48.000000
  0.214286 -0.142857 -0.000000     24.000000
  0.000000  0.071429  0.285714     24.000000
 -0.035714  0.107143  0.321429     48.000000
 -0.071429  0.142857  0.357143     48.000000
 -0.107143  0.178571  0.392857     48.000000
 -0.142857  0.214286  0.428571     48.000000
 -0.178571  0.250000  0.464286     48.000000
 -0.214286  0.285714  0.500000     48.000000
 -0.250000  0.321429  0.535714     48.000000
 -0.285714  0.357143  0.571429     48.000000
 -0.321429  0.392857  0.607143     48.000000
  0.642857 -0.571429 -0.357143     48.000000
  0.607143 -0.535714 -0.321429     48.000000
  0.571429 -0.500000 -0.285714     48.000000
  0.535714 -0.464286 -0.250000     48.000000
  0.500000 -0.428571 -0.214286     48.000000
  0.464286 -0.392857 -0.178571     48.000000
  0.428571 -0.357143 -0.142857     48.000000
  0.392857 -0.321429 -0.107143     48.000000
  0.357143 -0.285714 -0.071429     48.000000
  0.321429 -0.250000 -0.035714     48.000000
  0.285714 -0.214286  0.000000     24.000000
  0.000000  0.071429  0.357143     24.000000
 -0.035714  0.107143  0.392857     48.000000
 -0.071429  0.142857  0.428571     48.000000
 -0.107143  0.178571  0.464286     48.000000
 -0.142857  0.214286  0.500000     48.000000
 -0.178571  0.250000  0.535714     48.000000
 -0.214286  0.285714  0.571429     48.000000
 -0.250000  0.321429  0.607143     48.000000
 -0.285714  0.357143  0.642857     48.000000
  0.678571 -0.607143 -0.321429     48.000000
  0.642857 -0.571429 -0.285714     48.000000
  0.607143 -0.535714 -0.250000     48.000000
  0.571429 -0.500000 -0.214286     48.000000
  0.535714 -0.464286 -0.178571     48.000000
  0.500000 -0.428571 -0.142857     48.000000
  0.464286 -0.392857 -0.107143     48.000000
  0.428571 -0.357143 -0.071429     48.000000
  0.392857 -0.321429 -0.035714     48.000000
  0.357143 -0.285714  0.000000     24.000000
 -0.000000  0.071429  0.428571     24.000000
 -0.035714  0.107143  0.464286     48.000000
 -0.071429  0.142857  0.500000     48.000000
 -0.107143  0.178571  0.535714     48.000000
 -0.142857  0.214286  0.571429     48.000000
 -0.178571  0.250000  0.607143     48.000000
 -0.214286  0.285714  0.642857     48.000000
 -0.250000  0.321429  0.678571     48.000000
  0.714286 -0.642857 -0.285714     48.000000
  0.678571 -0.607143 -0.250000     48.000000
  0.642857 -0.571429 -0.214286     48.000000
  0.607143 -0.535714 -0.178571     48.000000
  0.571429 -0.500000 -0.142857     48.000000
  0.535714 -0.464286 -0.107143     48.000000
  0.500000 -0.428571 -0.071429     48.000000
  0.464286 -0.392857 -0.035714     48.000000
  0.428571 -0.357143  0.000000     24.000000
  0.000000  0.071429  0.500000     24.000000
 -0.035714  0.107143  0.535714     48.000000
 -0.071429  0.142857  0.571429     48.000000
 -0.107143  0.178571  0.607143     48.000000
 -0.142857  0.214286  0.642857     48.000000
 -0.178571  0.250000  0.678571     48.000000
 -0.214286  0.285714  0.714286     48.000000
  0.750000 -0.678571 -0.250000     48.000000
  0.714286 -0.642857 -0.214286     48.000000
  0.678571 -0.607143 -0.178571     48.000000
  0.642857 -0.571429 -0.142857     48.000000
  0.607143 -0.535714 -0.107143     48.000000
  0.571429 -0.500000 -0.071429     48.000000
  0.535714 -0.464286 -0.035714     48.000000
  0.500000 -0.428571  0.000000     24.000000
  0.000000  0.071429  0.571429     24.000000
 -0.035714  0.107143  0.607143     48.000000
 -0.071429  0.142857  0.642857     48.000000
 -0.107143  0.178571  0.678571     48.000000
 -0.142857  0.214286  0.714286     48.000000
 -0.178571  0.250000  0.750000     48.000000
  0.785714 -0.714286 -0.214286     48.000000
  0.750000 -0.678571 -0.178571     48.000000
  0.714286 -0.642857 -0.142857     48.000000
  0.678571 -0.607143 -0.107143     48.000000
  0.642857 -0.571429 -0.071429     48.000000
  0.607143 -0.535714 -0.035714     48.000000
  0.571429 -0.500000  0.000000     24.000000
  0.000000  0.071429  0.642857     24.000000
 -0.035714  0.107143  0.678571     48.000000
 -0.071429  0.142857  0.714286     48.000000
 -0.107143  0.178571  0.750000     48.000000
 -0.142857  0.214286  0.785714     48.000000
  0.821429 -0.750000 -0.178571     48.000000
  0.785714 -0.714286 -0.142857     48.000000
  0.750000 -0.678571 -0.107143     48.000000
  0.714286 -0.642857 -0.071429     48.000000
  0.678571 -0.607143 -0.035714     48.000000
  0.642857 -0.571429 -0.000000     24.000000
 -0.000000  0.071429  0.714286     24.000000
 -0.035714  0.107143  0.750000     48.000000
 -0.071429  0.142857  0.785714     48.000000
 -0.107143  0.178571  0.821429     48.000000
  0.857143 -0.785714 -0.142857     48.000000
  0.821429 -0.750000 -0.107143     48.000000
  0.785714 -0.714286 -0.071429     48.000000
  0.750000 -0.678571 -0.035714     48.000000
  0.714286 -0.642857 -0.000000     24.000000
  0.000000  0.071429  0.785714     24.000000
 -0.035714  0.107143  0.821429     48.000000
 -0.071429  0.142857  0.857143     48.000000
  0.892857 -0.821429 -0.107143     48.000000
  0.857143 -0.785714 -0.071429     48.000000
  0.821429 -0.750000 -0.035714     48.000000
  0.785714 -0.714286  0.000000     24.000000
  0.000000  0.071429  0.857143     24.000000
 -0.035714  0.107143  0.892857     48.000000
  0.928571 -0.857143 -0.071429     48.000000
  0.892857 -0.821429 -0.035714     48.000000
  0.857143 -0.785714 -0.000000     24.000000
 -0.000000  0.071429  0.928571     24.000000
  0.964286 -0.892857 -0.035714     48.000000
  0.928571 -0.857143 -0.000000     24.000000
  1.000000 -0.928571  0.000000     12.000000
  0.000000  0.142857  0.285714     24.000000
 -0.035714  0.178571  0.321429     48.000000
 -0.071429  0.214286  0.357143     48.000000
 -0.107143  0.250000  0.392857     48.000000
 -0.142857  0.285714  0.428571     48.000000
 -0.178571  0.321429  0.464286     48.000000
 -0.214286  0.357143  0.500000     48.000000
 -0.250000  0.392857  0.535714     48.000000
 -0.285714  0.428571  0.571429     48.000000
  0.678571 -0.535714 -0.392857     48.000000
  0.642857 -0.500000 -0.357143     24.000000
 -0.000000  0.142857  0.357143     24.000000
 -0.035714  0.178571  0.392857     48.000000
 -0.071429  0.214286  0.428571     48.000000
 -0.107143  0.250000  0.464286     48.000000
 -0.142857  0.285714  0.500000     48.000000
 -0.178571  0.321429  0.535714     48.000000
 -0.214286  0.357143  0.571429     48.000000
 -0.250000  0.392857  0.607143     48.000000
  0.714286 -0.571429 -0.357143     48.000000
  0.678571 -0.535714 -0.321429     48.000000
  0.642857 -0.500000 -0.285714     48.000000
  0.607143 -0.464286 -0.250000     48.000000
  0.571429 -0.428571 -0.214286     48.000000
  0.535714 -0.392857 -0.178571     48.000000
  0.500000 -0.357143 -0.142857     48.000000
  0.464286 -0.321429 -0.107143     48.000000
  0.428571 -0.285714 -0.071429     48.000000
  0.392857 -0.250000 -0.035714     48.000000
  0.357143 -0.214286  0.000000     24.000000
 -0.000000  0.142857  0.428571     24.000000
 -0.035714  0.178571  0.464286     48.000000
 -0.071429  0.214286  0.500000     48.000000
 -0.107143  0.250000  0.535714     48.000000
 -0.142857  0.285714  0.571429     48.000000
 -0.178571  0.321429  0.607143     48.000000
 -0.214286  0.357143  0.642857     48.000000
  0.750000 -0.607143 -0.321429     48.000000
  0.714286 -0.571429 -0.285714     48.000000
  0.678571 -0.535714 -0.250000     48.000000
  0.642857 -0.500000 -0.214286     48.000000
  0.607143 -0.464286 -0.178571     48.000000
  0.571429 -0.428571 -0.142857     48.000000
  0.535714 -0.392857 -0.107143     48.000000
  0.500000 -0.357143 -0.071429     48.000000
  0.464286 -0.321429 -0.035714     48.000000
  0.428571 -0.285714  0.000000     24.000000
  0.000000  0.142857  0.500000     24.000000
 -0.035714  0.178571  0.535714     48.000000
 -0.071429  0.214286  0.571429     48.000000
 -0.107143  0.250000  0.607143     48.000000
 -0.142857  0.285714  0.642857     48.000000
 -0.178571  0.321429  0.678571     48.000000
  0.785714 -0.642857 -0.285714     48.000000
  0.750000 -0.607143 -0.250000     48.000000
  0.714286 -0.571429 -0.214286     48.000000
  0.678571 -0.535714 -0.178571     48.000000
  0.642857 -0.500000 -0.142857     48.000000
  0.607143 -0.464286 -0.107143     48.000000
  0.571429 -0.428571 -0.071429     48.000000
  0.535714 -0.392857 -0.035714     48.000000
  0.500000 -0.357143  0.000000     24.000000
  0.000000  0.142857  0.571429     24.000000
 -0.035714  0.178571  0.607143     48.000000
 -0.071429  0.214286  0.642857     48.000000
 -0.107143  0.250000  0.678571     48.000000
 -0.142857  0.285714  0.714286     48.000000
  0.821429 -0.678571 -0.250000     48.000000
  0.785714 -0.642857 -0.214286     48.000000
  0.750000 -0.607143 -0.178571     48.000000
  0.714286 -0.571429 -0.142857     48.000000
  0.678571 -0.535714 -0.107143     48.000000
  0.642857 -0.500000 -0.071429     48.000000
  0.607143 -0.464286 -0.035714     48.000000
  0.571429 -0.428571  0.000000     24.000000
 -0.000000  0.142857  0.642857     24.000000
 -0.035714  0.178571  0.678571     48.000000
 -0.071429  0.214286  0.714286     48.000000
 -0.107143  0.250000  0.750000     48.000000
  0.857143 -0.714286 -0.214286     48.000000
  0.821429 -0.678571 -0.178571     48.000000
  0.785714 -0.642857 -0.142857     48.000000
  0.750000 -0.607143 -0.107143     48.000000
  0.714286 -0.571429 -0.071429     48.000000
  0.678571 -0.535714 -0.035714     48.000000
  0.642857 -0.500000 -0.000000     24.000000
 -0.000000  0.142857  0.714286     24.000000
 -0.035714  0.178571  0.750000     48.000000
 -0.071429  0.214286  0.785714     48.000000
  0.892857 -0.750000 -0.178571     48.000000
  0.857143 -0.714286 -0.142857     48.000000
  0.821429 -0.678571 -0.107143     48.000000
  0.785714 -0.642857 -0.071429     48.000000
  0.750000 -0.607143 -0.035714     48.000000
  0.714286 -0.571429 -0.000000     24.000000
  0.000000  0.142857  0.785714     24.000000
 -0.035714  0.178571  0.821429     48.000000
  0.928571 -0.785714 -0.142857     48.000000
  0.892857 -0.750000 -0.107143     48.000000
  0.857143 -0.714286 -0.071429     48.000000
  0.821429 -0.678571 -0.035714     48.000000
  0.785714 -0.642857  0.000000     24.000000
 -0.000000  0.142857  0.857143     24.000000
  0.964286 -0.821429 -0.107143     48.000000
  0.928571 -0.785714 -0.071429     48.000000
  0.892857 -0.750000 -0.035714     48.000000
  0.857143 -0.714286  0.000000     24.000000
  1.000000 -0.857143 -0.071429     24.000000
  0.964286 -0.821429 -0.035714     48.000000
  0.928571 -0.785714  0.000000     24.000000
  1.000000 -0.857143  0.000000     12.000000
  0.000000  0.214286  0.428571     24.000000
 -0.035714  0.250000  0.464286     48.000000
 -0.071429  0.285714  0.500000     48.000000
 -0.107143  0.321429  0.535714     48.000000
 -0.142857  0.357143  0.571429     48.000000
 -0.178571  0.392857  0.607143     48.000000
  0.785714 -0.571429 -0.357143     48.000000
  0.750000 -0.535714 -0.321429     48.000000
  0.714286 -0.500000 -0.285714     24.000000
  0.000000  0.214286  0.500000     24.000000
 -0.035714  0.250000  0.535714     48.000000
 -0.071429  0.285714  0.571429     48.000000
 -0.107143  0.321429  0.607143     48.000000
 -0.142857  0.357143  0.642857     48.000000
  0.821429 -0.607143 -0.321429     48.000000
  0.785714 -0.571429 -0.285714     48.000000
  0.750000 -0.535714 -0.250000     48.000000
  0.714286 -0.500000 -0.214286     48.000000
  0.678571 -0.464286 -0.178571     48.000000
  0.642857 -0.428571 -0.142857     48.000000
  0.607143 -0.392857 -0.107143     48.000000
  0.571429 -0.357143 -0.071429     48.000000
  0.535714 -0.321429 -0.035714     48.000000
  0.500000 -0.285714  0.000000     24.000000
 -0.000000  0.214286  0.571429     24.000000
 -0.035714  0.250000  0.607143     48.000000
 -0.071429  0.285714  0.642857     48.000000
 -0.107143  0.321429  0.678571     48.000000
  0.857143 -0.642857 -0.285714     48.000000
  0.821429 -0.607143 -0.250000     48.000000
  0.785714 -0.571429 -0.214286     48.000000
  0.750000 -0.535714 -0.178571     48.000000
  0.714286 -0.500000 -0.142857     48.000000
  0.678571 -0.464286 -0.107143     48.000000
  0.642857 -0.428571 -0.071429     48.000000
  0.607143 -0.392857 -0.035714     48.000000
  0.571429 -0.357143  0.000000     24.000000
 -0.000000  0.214286  0.642857     24.000000
 -0.035714  0.250000  0.678571     48.000000
 -0.071429  0.285714  0.714286     48.000000
  0.892857 -0.678571 -0.250000     48.000000
  0.857143 -0.642857 -0.214286     48.000000
  0.821429 -0.607143 -0.178571     48.000000
  0.785714 -0.571429 -0.142857     48.000000
  0.750000 -0.535714 -0.107143     48.000000
  0.714286 -0.500000 -0.071429     48.000000
  0.678571 -0.464286 -0.035714     48.000000
  0.642857 -0.428571 -0.000000     24.000000
 -0.000000  0.214286  0.714286     24.000000
 -0.035714  0.250000  0.750000     48.000000
  0.928571 -0.714286 -0.214286     48.000000
  0.892857 -0.678571 -0.178571     48.000000
  0.857143 -0.642857 -0.142857     48.000000
  0.821429 -0.607143 -0.107143     48.000000
  0.785714 -0.571429 -0.071429     48.000000
  0.750000 -0.535714 -0.035714     48.000000
  0.714286 -0.500000  0.000000     24.000000
 -0.000000  0.214286  0.785714     24.000000
  0.964286 -0.750000 -0.178571     48.000000
  0.928571 -0.714286 -0.142857     48.000000
  0.892857 -0.678571 -0.107143     48.000000
  0.857143 -0.642857 -0.071429     48.000000
  0.821429 -0.607143 -0.035714     48.000000
  0.785714 -0.571429  0.000000     24.000000
  1.000000 -0.785714 -0.142857     24.000000
  0.964286 -0.750000 -0.107143     48.000000
  0.928571 -0.714286 -0.071429     48.000000
  0.892857 -0.678571 -0.035714     48.000000
  0.857143 -0.642857  0.000000     24.000000
  1.000000 -0.785714 -0.071429     24.000000
  0.964286 -0.750000 -0.035714     48.000000
  0.928571 -0.714286  0.000000     24.000000
  1.000000 -0.785714  0.000000     12.000000
  0.000000  0.285714  0.571429     24.000000
 -0.035714  0.321429  0.607143     48.000000
 -0.071429  0.357143  0.642857     48.000000
  0.892857 -0.607143 -0.321429     48.000000
  0.857143 -0.571429 -0.285714     48.000000
  0.821429 -0.535714 -0.250000     48.000000
  0.785714 -0.500000 -0.214286     24.000000
 -0.000000  0.285714  0.642857     24.000000
 -0.035714  0.321429  0.678571     48.000000
  0.928571 -0.642857 -0.285714     48.000000
  0.892857 -0.607143 -0.250000     48.000000
  0.857143 -0.571429 -0.214286     48.000000
  0.821429 -0.535714 -0.178571     48.000000
  0.785714 -0.500000 -0.142857     48.000000
  0.750000 -0.464286 -0.107143     48.000000
  0.714286 -0.428571 -0.071429     48.000000
  0.678571 -0.392857 -0.035714     48.000000
  0.642857 -0.357143 -0.000000     24.000000
 -0.000000  0.285714  0.714286     24.000000
  0.964286 -0.678571 -0.250000     48.000000
  0.928571 -0.642857 -0.214286     48.000000
  0.892857 -0.607143 -0.178571     48.000000
  0.857143 -0.571429 -0.142857     48.000000
  0.821429 -0.535714 -0.107143     48.000000
  0.785714 -0.500000 -0.071429     48.000000
  0.750000 -0.464286 -0.035714     48.000000
  0.714286 -0.428571 -0.000000     24.000000
  1.000000 -0.714286 -0.214286     24.000000
  0.964286 -0.678571 -0.178571     48.000000
  0.928571 -0.642857 -0.142857     48.000000
  0.892857 -0.607143 -0.107143     48.000000
  0.857143 -0.571429 -0.071429     48.000000
  0.821429 -0.535714 -0.035714     48.000000
  0.785714 -0.500000  0.000000     24.000000
  1.000000 -0.714286 -0.142857     24.000000
  0.964286 -0.678571 -0.107143     48.000000
  0.928571 -0.642857 -0.071429     48.000000
  0.892857 -0.607143 -0.035714     48.000000
  0.857143 -0.571429  0.000000     24.000000
  1.000000 -0.714286 -0.071429     24.000000
  0.964286 -0.678571 -0.035714     48.000000
  0.928571 -0.642857  0.000000     24.000000
  1.000000 -0.714286  0.000000     12.000000
  1.000000 -0.642857 -0.285714     24.000000
  0.964286 -0.607143 -0.250000     48.000000
  0.928571 -0.571429 -0.214286     48.000000
  0.892857 -0.535714 -0.178571     48.000000
  0.857143 -0.500000 -0.142857     24.000000
  1.000000 -0.642857 -0.214286     24.000000
  0.964286 -0.607143 -0.178571     48.000000
  0.928571 -0.571429 -0.142857     48.000000
  0.892857 -0.535714 -0.107143     48.000000
  0.857143 -0.500000 -0.071429     48.000000
  0.821429 -0.464286 -0.035714     48.000000
  0.785714 -0.428571  0.000000     24.000000
  1.000000 -0.642857 -0.142857     24.000000
  0.964286 -0.607143 -0.107143     48.000000
  0.928571 -0.571429 -0.071429     48.000000
  0.892857 -0.535714 -0.035714     48.000000
  0.857143 -0.500000  0.000000     24.000000
  1.000000 -0.642857 -0.071429     24.000000
  0.964286 -0.607143 -0.035714     48.000000
  0.928571 -0.571429  0.000000     24.000000
  1.000000 -0.642857  0.000000     12.000000
  1.000000 -0.571429 -0.142857     24.000000
  0.964286 -0.535714 -0.107143     48.000000
  0.928571 -0.500000 -0.071429     24.000000
  1.000000 -0.571429 -0.071429     24.000000
  0.964286 -0.535714 -0.035714     48.000000
  0.928571 -0.500000  0.000000     24.000000
  1.000000 -0.571429  0.000000     12.000000
  1.000000 -0.500000  0.000000      6.000000
 


--------------------------------------------------------------------------------------------------------




 Dimension of arrays:
   k-points           NKPTS =    624   k-points in BZ     NKDIM =    624   number of bands    NBANDS=      8
   number of dos      NEDOS =    301   number of ions     NIONS =      2
   non local maximal  LDIM  =      4   non local SUM 2l+1 LMDIM =      8
   total plane-waves  NPLWV =  46656
   max r-space proj   IRMAX =      1   max aug-charges    IRDMAX= 392396
   dimension x,y,z NGX =    36 NGY =   36 NGZ =   36
   dimension x,y,z NGXF=    72 NGYF=   72 NGZF=   72
   support grid    NGXF=   144 NGYF=  144 NGZF=  144
   ions per type =               2
   NGX,Y,Z   is equivalent  to a cutoff of  16.83, 16.83, 16.83 a.u.
   NGXF,Y,Z  is equivalent  to a cutoff of  33.65, 33.65, 33.65 a.u.

 SYSTEM =  Si                                      
 POSCAR =  Unknown                                 

 Startparameter for this run:
   NWRITE =      2    write-flag & timer
   PREC   = accura    normal or accurate (medium, high low for compatibility)
   ISTART =      0    job   : 0-new  1-cont  2-samecut
   ICHARG =      2    charge: 1-file 2-atom 10-const
   ISPIN  =      1    spin polarized calculation?
   LNONCOLLINEAR =      F non collinear calculations
   LSORBIT =      F    spin-orbit coupling
   INIWAV =      1    electr: 0-lowe 1-rand  2-diag
   LASPH  =      T    aspherical Exc in radial PAW
   METAGGA=      F    non-selfconsistent MetaGGA calc.

 Electronic Relaxation 1
   ENCUT  =  800.0 eV  58.80 Ry    7.67 a.u.   8.20  8.20  8.20*2*pi/ulx,y,z
   ENINI  =  800.0     initial cutoff
   ENAUG  =  900.0 eV  augmentation charge cutoff
   NELM   =    200;   NELMIN=  6; NELMDL=  0     # of ELM steps 
   EDIFF  = 0.1E-06   stopping-criterion for ELM
   LREAL  =      F    real-space projection
   NLSPLINE    = F    spline interpolate recip. space projectors
   LCOMPAT=      F    compatible to vasp.4.4
   GGA_COMPAT  = T    GGA compatible to vasp.4.4-vasp.4.6
   LMAXPAW     = -100 max onsite density
   LMAXMIX     =    4 max onsite mixed and CHGCAR
   VOSKOWN=      0    Vosko Wilk Nusair interpolation
   ROPT   =    0.00000
 Ionic relaxation
   EDIFFG = 0.1E-05   stopping-criterion for IOM
   NSW    =      0    number of steps for IOM
   NBLOCK =      1;   KBLOCK =      1    inner block; outer block 
   IBRION =     -1    ionic relax: 0-MD 1-quasi-New 2-CG
   NFREE  =      0    steps in history (QN), initial steepest desc. (CG)
   ISIF   =      2    stress and relaxation
   IWAVPR =     10    prediction:  0-non 1-charg 2-wave 3-comb
   ISYM   =      2    0-nonsym 1-usesym 2-fastsym
   LCORR  =      T    Harris-Foulkes like correction to forces

   POTIM  = 0.5000    time-step for ionic-motion
   TEIN   =    0.0    initial temperature
   TEBEG  =    0.0;   TEEND  =   0.0 temperature during run
   SMASS  =  -3.00    Nose mass-parameter (am)
   estimated Nose-frequenzy (Omega)   =  0.10E-29 period in steps = 0.13E+47 mass=  -0.289E-27a.u.
   SCALEE = 1.0000    scale energy and forces
   NPACO  =    256;   APACO  = 16.0  distance and # of slots for P.C.
   PSTRESS=    0.0 pullay stress

  Mass of Ions in am
   POMASS =  28.09
  Ionic Valenz
   ZVAL   =   4.00
  Atomic Wigner-Seitz radii
   RWIGS  =  -1.00
  virtual crystal weights 
   VCA    =   1.00
   NELECT =       8.0000    total number of electrons
   NUPDOWN=      -1.0000    fix difference up-down

 DOS related values:
   EMIN   =  10.00;   EMAX   =-10.00  energy-range for DOS
   EFERMI =   0.00
   ISMEAR =    -5;   SIGMA  =   0.20  broadening in eV -4-tet -1-fermi 0-gaus

 Electronic relaxation 2 (details)
   IALGO  =     38    algorithm
   LDIAG  =      T    sub-space diagonalisation (order eigenvalues)
   LSUBROT=      F    optimize rotation matrix (better conditioning)
   TURBO    =      0    0=normal 1=particle mesh
   IRESTART =      0    0=no restart 2=restart with 2 vectors
   NREBOOT  =      0    no. of reboots
   NMIN     =      0    reboot dimension
   EREF     =   0.00    reference energy to select bands
   IMIX   =      4    mixing-type and parameters
     AMIX     =   0.40;   BMIX     =  1.00
     AMIX_MAG =   1.60;   BMIX_MAG =  1.00
     AMIN     =   0.10
     WC   =   100.;   INIMIX=   1;  MIXPRE=   1;  MAXMIX= -45

 Intra band minimization:
   WEIMIN = 0.0000     energy-eigenvalue tresh-hold
   EBREAK =  0.31E-08  absolut break condition
   DEPER  =   0.30     relativ break condition  

   TIME   =   0.40     timestep for ELM

  volume/ion in A,a.u.               =      15.91       107.35
  Fermi-wavevector in a.u.,A,eV,Ry     =   1.033293  1.952641 14.526866  1.067695
  Thomas-Fermi vector in A             =   2.167533
 
 Write flags
   LWAVE        =      F    write WAVECAR
   LDOWNSAMPLE  =      F    k-point downsampling of WAVECAR
   LCHARG       =      F    write CHGCAR
   LVTOT        =      F    write LOCPOT, total local potential
   LVHAR        =      F    write LOCPOT, Hartree potential only
   LELF         =      F    write electronic localiz. function (ELF)
   LORBIT       =     11    0 simple, 1 ext, 2 COOP (PROOUT), +10 PAW based schemes


 Dipole corrections
   LMONO  =      F    monopole corrections only (constant potential shift)
   LDIPOL =      F    correct potential (dipole corrections)
   IDIPOL =      0    1-x, 2-y, 3-z, 4-all directions 
   EPSILON=  1.0000000 bulk dielectric constant

 Exchange correlation treatment:
   GGA     =    PE    GGA type
   LEXCH   =     8    internal setting for exchange type
   VOSKOWN=      0    Vosko Wilk Nusair interpolation
   LHFCALC =     F    Hartree Fock is set to
   LHFONE  =     F    Hartree Fock one center treatment
   AEXX    =    0.0000 exact exchange contribution

 Linear response parameters
   LEPSILON=     F    determine dielectric tensor
   LRPA    =     F    only Hartree local field effects (RPA)
   LNABLA  =     F    use nabla operator in PAW spheres
   LVEL    =     F    velocity operator in full k-point grid
   LINTERFAST=   F  fast interpolation
   KINTER  =     0    interpolate to denser k-point grid
   CSHIFT  =0.1000    complex shift for real part using Kramers Kronig
   OMEGAMAX=  -1.0    maximum frequency
   DEG_THRESHOLD= 0.2000000E-02 threshold for treating states as degnerate
   RTIME   =   -0.100 relaxation time in fs
  (WPLASMAI=    0.000 imaginary part of plasma frequency in eV, 0.658/RTIME)
   DFIELD  = 0.0000000 0.0000000 0.0000000 field for delta impulse in time
 
 Orbital magnetization related:
   ORBITALMAG=     F  switch on orbital magnetization
   LCHIMAG   =     F  perturbation theory with respect to B field
   DQ        =  0.001000  dq finite difference perturbation B field
   LLRAUG    =     F  two centre corrections for induced B field



--------------------------------------------------------------------------------------------------------


 Static calculation
 charge density and potential will be updated during run
 non-spin polarized calculation
 Variant of blocked Davidson
 Davidson routine will perform the subspace rotation
 perform sub-space diagonalisation
    after iterative eigenvector-optimisation
 modified Broyden-mixing scheme, WC =      100.0
 initial mixing is a Kerker type mixing with AMIX =  0.4000 and BMIX =      1.0000
 Hartree-type preconditioning will be used
 using additional bands            4
 reciprocal scheme for non local part
 use partial core corrections
 calculate Harris-corrections to forces 
   (improved forces if not selfconsistent)
 use gradient corrections 
 use of overlap-Matrix (Vanderbilt PP)
 Fermi weights with tetrahedron method with Bloechl corrections


--------------------------------------------------------------------------------------------------------


  energy-cutoff  :      800.00
  volume of cell :       31.82
      direct lattice vectors                 reciprocal lattice vectors
     0.000000000  2.515000000  2.515000000    -0.198807157  0.198807157  0.198807157
     2.515000000  0.000000000  2.515000000     0.198807157 -0.198807157  0.198807157
     2.515000000  2.515000000  0.000000000     0.198807157  0.198807157 -0.198807157

  length of vectors
     3.556747109  3.556747109  3.556747109     0.344344097  0.344344097  0.344344097


 
 k-points in units of 2pi/SCALE and weight: read from INCAR                         
   0.00000000  0.00000000  0.00000000       0.000
  -0.03571429  0.03571429  0.03571429       0.000
  -0.07142857  0.07142857  0.07142857       0.000
  -0.10714286  0.10714286  0.10714286       0.000
  -0.14285714  0.14285714  0.14285714       0.000
  -0.17857143  0.17857143  0.17857143       0.000
  -0.21428571  0.21428571  0.21428571       0.000
  -0.25000000  0.25000000  0.25000000       0.000
  -0.28571429  0.28571429  0.28571429       0.000
  -0.32142857  0.32142857  0.32142857       0.000
  -0.35714286  0.35714286  0.35714286       0.000
  -0.39285714  0.39285714  0.39285714       0.000
  -0.42857143  0.42857143  0.42857143       0.000
  -0.46428571  0.46428571  0.46428571       0.000
  -0.50000000  0.50000000  0.50000000       0.000
   0.00000000  0.00000000  0.07142857       0.000
  -0.03571429  0.03571429  0.10714286       0.001
  -0.07142857  0.07142857  0.14285714       0.001
  -0.10714286  0.10714286  0.17857143       0.001
  -0.14285714  0.14285714  0.21428571       0.001
  -0.17857143  0.17857143  0.25000000       0.001
  -0.21428571  0.21428571  0.28571429       0.001
  -0.25000000  0.25000000  0.32142857       0.001
  -0.28571429  0.28571429  0.35714286       0.001
  -0.32142857  0.32142857  0.39285714       0.001
  -0.35714286  0.35714286  0.42857143       0.001
[...]
      8      15.9812      0.00000

 k-point   591 :      -0.2857    0.4286    0.1429
  band No.  band energies     occupation 
      1      -1.0935      2.00000
      2       0.1724      2.00000
      3       2.6947      2.00000
      4       4.2371      2.00000
      5      11.2652      0.00000
      6      13.6277      0.00000
      7      15.1965      0.00000
      8      15.3255      0.00000

 k-point   592 :      -0.3929    0.4643    0.1429
  band No.  band energies     occupation 
      1      -1.1407      2.00000
      2       0.1018      2.00000
      3       3.6075      2.00000
      4       3.8400      2.00000
      5      10.6767      0.00000
      6      10.8250      0.00000
      7      16.4434      0.00000
      8      17.9463      0.00000

 k-point   593 :      -0.3571    0.4643    0.1429
  band No.  band energies     occupation 
      1      -0.8013      2.00000
      2      -0.1778      2.00000
      3       3.3211      2.00000
      4       3.8082      2.00000
      5      10.8322      0.00000
      6      11.4783      0.00000
      7      16.2591      0.00000
      8      17.0070      0.00000

 k-point   594 :      -0.3214    0.4643    0.1429
  band No.  band energies     occupation 
      1      -0.6964      2.00000
      2      -0.2320      2.00000
      3       3.0184      2.00000
      4       3.9165      2.00000
      5      10.9535      0.00000
      6      12.2524      0.00000
      7      16.0550      0.00000
      8      16.1474      0.00000

 k-point   595 :      -0.3571    0.5000    0.1429
  band No.  band energies     occupation 
      1      -0.5223      2.00000
      2      -0.5223      2.00000
      3       3.6813      2.00000
      4       3.6813      2.00000
      5      10.7212      0.00000
      6      10.7212      0.00000
      7      17.1829      0.00000
      8      17.1829      0.00000

 k-point   596 :      -0.4643    0.3571    0.1786
  band No.  band energies     occupation 
      1      -2.6492      2.00000
      2       1.6012      2.00000
      3       3.4293      2.00000
      4       4.9649      2.00000
      5      11.7414      0.00000
      6      12.1406      0.00000
      7      13.6776      0.00000
      8      17.3415      0.00000

 k-point   597 :      -0.4286    0.3571    0.1786
  band No.  band energies     occupation 
      1      -2.2858      2.00000
      2       1.2137      2.00000
      3       3.2218      2.00000
      4       4.7441      2.00000
      5      11.9206      0.00000
      6      12.4397      0.00000
      7      13.6763      0.00000
      8      17.4998      0.00000

 k-point   598 :      -0.3929    0.3571    0.1786
  band No.  band energies     occupation 
      1      -1.9320      2.00000
      2       0.8175      2.00000
      3       3.1029      2.00000
      4       4.5728      2.00000
      5      11.9412      0.00000
      6      12.6928      0.00000
      7      13.9842      0.00000
      8      17.1621      0.00000

 k-point   599 :      -0.3571    0.3571    0.1786
  band No.  band energies     occupation 
      1      -1.6414      2.00000
      2       0.4910      2.00000
      3       3.0445      2.00000
      4       4.4640      2.00000
      5      11.9496      0.00000
      6      12.7470      0.00000
      7      14.5670      0.00000
      8      16.4610      0.00000

 k-point   600 :      -0.3214    0.3571    0.1786
  band No.  band energies     occupation 
      1      -1.5190      2.00000
      2       0.3550      2.00000
      3       3.0273      2.00000
      4       4.4266      2.00000
      5      11.9532      0.00000
      6      12.7480      0.00000
      7      15.0001      0.00000
      8      15.9821      0.00000

 k-point   601 :      -0.4286    0.3929    0.1786
  band No.  band energies     occupation 
      1      -2.1325      2.00000
      2       1.1342      2.00000
      3       3.3115      2.00000
      4       4.4282      2.00000
      5      11.6261      0.00000
      6      11.9513      0.00000
      7      14.1435      0.00000
      8      17.9703      0.00000

 k-point   602 :      -0.3929    0.3929    0.1786
  band No.  band energies     occupation 
      1      -1.7719      2.00000
      2       0.7897      2.00000
      3       3.1258      2.00000
      4       4.2308      2.00000
      5      11.8081      0.00000
      6      12.4242      0.00000
      7      14.0393      0.00000
      8      17.3890      0.00000

 k-point   603 :      -0.3571    0.3929    0.1786
  band No.  band energies     occupation 
      1      -1.4493      2.00000
      2       0.4710      2.00000
      3       2.9911      2.00000
      4       4.1176      2.00000
      5      11.8795      0.00000
      6      12.9123      0.00000
      7      14.1269      0.00000
      8      16.5512      0.00000

 k-point   604 :      -0.3214    0.3929    0.1786
  band No.  band energies     occupation 
      1      -1.2589      2.00000
      2       0.2825      2.00000
      3       2.8996      2.00000
      4       4.0947      2.00000
      5      11.9635      0.00000
      6      13.0994      0.00000
      7      14.5228      0.00000
      8      15.7827      0.00000

 k-point   605 :      -0.2857    0.3929    0.1786
  band No.  band energies     occupation 
      1      -1.3185      2.00000
      2       0.3452      2.00000
      3       2.8565      2.00000
      4       4.1574      2.00000
      5      12.0636      0.00000
      6      13.0705      0.00000
      7      14.5685      0.00000
      8      15.6874      0.00000

 k-point   606 :      -0.2500    0.3929    0.1786
  band No.  band energies     occupation 
      1      -1.5821      2.00000
      2       0.6058      2.00000
      3       2.8792      2.00000
      4       4.2949      2.00000
      5      12.1722      0.00000
      6      12.9092      0.00000
      7      14.0473      0.00000
      8      16.3999      0.00000

 k-point   607 :      -0.2143    0.3929    0.1786
  band No.  band energies     occupation 
      1      -1.9259      2.00000
      2       0.9229      2.00000
      3       2.9934      2.00000
      4       4.4948      2.00000
      5      12.2613      0.00000
      6      12.5481      0.00000
      7      13.7285      0.00000
      8      17.1787      0.00000

 k-point   608 :      -0.3929    0.4286    0.1786
  band No.  band energies     occupation 
      1      -1.5874      2.00000
      2       0.6351      2.00000
      3       3.2658      2.00000
      4       3.9851      2.00000
      5      11.5567      0.00000
      6      11.7786      0.00000
      7      14.7196      0.00000
      8      17.5777      0.00000

 k-point   609 :      -0.3571    0.4286    0.1786
  band No.  band energies     occupation 
      1      -1.2435      2.00000
      2       0.3349      2.00000
      3       3.0974      2.00000
      4       3.8311      2.00000
      5      11.7273      0.00000
      6      12.3705      0.00000
      7      14.5776      0.00000
      8      16.6773      0.00000

 k-point   610 :      -0.3214    0.4286    0.1786
  band No.  band energies     occupation 
      1      -0.9955      2.00000
      2       0.1166      2.00000
      3       2.9318      2.00000
      4       3.8138      2.00000
      5      11.8277      0.00000
      6      13.0148      0.00000
      7      14.5338      0.00000
      8      15.8168      0.00000

 k-point   611 :      -0.2857    0.4286    0.1786
  band No.  band energies     occupation 
      1      -1.0022      2.00000
      2       0.1315      2.00000
      3       2.8142      2.00000
      4       3.9014      2.00000
      5      11.9483      0.00000
      6      13.3990      0.00000
      7      14.6161      0.00000
      8      15.2084      0.00000

 k-point   612 :      -0.2500    0.4286    0.1786
  band No.  band energies     occupation 
      1      -1.2492      2.00000
      2       0.3518      2.00000
      3       2.7866      2.00000
      4       4.0671      2.00000
      5      12.0811      0.00000
      6      13.3246      0.00000
      7      14.2772      0.00000
      8      15.6061      0.00000

 k-point   613 :      -0.3571    0.4643    0.1786
  band No.  band energies     occupation 
      1      -1.0242      2.00000
      2       0.1021      2.00000
      3       3.3004      2.00000
      4       3.6505      2.00000
      5      11.5362      0.00000
      6      11.6477      0.00000
      7      15.3711      0.00000
      8      16.8307      0.00000

 k-point   614 :      -0.3214    0.4643    0.1786
  band No.  band energies     occupation 
      1      -0.7283      2.00000
      2      -0.1395      2.00000
      3       3.1187      2.00000
      4       3.5896      2.00000
      5      11.6857      0.00000
      6      12.3341      0.00000
      7      15.2186      0.00000
      8      15.9283      0.00000

 k-point   615 :      -0.2857    0.4643    0.1786
  band No.  band energies     occupation 
      1      -0.7340      2.00000
      2      -0.1086      2.00000
      3       2.9148      2.00000
      4       3.7056      2.00000
      5      11.8088      0.00000
      6      13.0369      0.00000
      7      15.1068      0.00000
      8      15.1431      0.00000

 k-point   616 :      -0.3214    0.5000    0.1786
  band No.  band energies     occupation 
      1      -0.4559      2.00000
      2      -0.4559      2.00000
      3       3.4250      2.00000
      4       3.4250      2.00000
      5      11.5663      0.00000
      6      11.5663      0.00000
      7      16.0804      0.00000
      8      16.0804      0.00000

 k-point   617 :      -0.3571    0.4286    0.2143
  band No.  band energies     occupation 
      1      -1.4191      2.00000
      2       0.5111      2.00000
      3       2.9836      2.00000
      4       3.9768      2.00000
      5      12.3886      0.00000
      6      12.4672      0.00000
      7      13.9834      0.00000
      8      16.5258      0.00000

 k-point   618 :      -0.3214    0.4286    0.2143
  band No.  band energies     occupation 
      1      -1.1115      2.00000
      2       0.2443      2.00000
      3       2.9117      2.00000
      4       3.8101      2.00000
      5      12.4074      0.00000
      6      12.9327      0.00000
      7      14.1339      0.00000
      8      15.6873      0.00000

 k-point   619 :      -0.2857    0.4286    0.2143
  band No.  band energies     occupation 
      1      -0.9693      2.00000
      2       0.1147      2.00000
      3       2.8910      2.00000
      4       3.7514      2.00000
      5      12.4086      0.00000
      6      13.0914      0.00000
      7      14.4140      0.00000
      8      15.1772      0.00000

 k-point   620 :      -0.3214    0.4643    0.2143
  band No.  band energies     occupation 
      1      -0.9076      2.00000
      2       0.0686      2.00000
      3       3.0672      2.00000
      4       3.5592      2.00000
      5      12.4142      0.00000
      6      12.4237      0.00000
      7      14.4631      0.00000
      8      15.7848      0.00000

 k-point   621 :      -0.2857    0.4643    0.2143
  band No.  band energies     occupation 
      1      -0.6842      2.00000
      2      -0.1192      2.00000
      3       3.0145      2.00000
      4       3.4687      2.00000
      5      12.4812      0.00000
      6      13.0012      0.00000
      7      14.4609      0.00000
      8      15.0200      0.00000

 k-point   622 :      -0.2500    0.4643    0.2143
  band No.  band energies     occupation 
      1      -0.8064      2.00000
      2      -0.0037      2.00000
      3       2.9329      2.00000
      4       3.5795      2.00000
      5      12.5318      0.00000
      6      13.1583      0.00000
      7      14.3107      0.00000
      8      14.9883      0.00000

 k-point   623 :      -0.2857    0.5000    0.2143
  band No.  band energies     occupation 
      1      -0.4069      2.00000
      2      -0.4069      2.00000
      3       3.2560      2.00000
      4       3.2560      2.00000
      5      12.4117      0.00000
      6      12.4117      0.00000
      7      15.0823      0.00000
      8      15.0823      0.00000

 k-point   624 :      -0.2500    0.5000    0.2500
  band No.  band energies     occupation 
      1      -0.3887      2.00000
      2      -0.3887      2.00000
      3       3.1970      2.00000
      4       3.1970      2.00000
      5      12.9071      0.00000
      6      12.9071      0.00000
      7      14.5362      0.00000
      8      14.5362      0.00000


--------------------------------------------------------------------------------------------------------


 soft charge-density along one line, spin component           1
         0         1         2         3         4         5         6         7         8         9
 total charge-density along one line
 
 pseudopotential strength for first ion, spin component:           1
 17.932  25.013  -0.000   0.000  -0.000  -0.000   0.000  -0.000
 25.013  34.896  -0.000   0.000  -0.000  -0.000   0.000  -0.000
 -0.000  -0.000   4.130   0.000   0.000   7.693   0.000   0.000
  0.000   0.000   0.000   4.130   0.000   0.000   7.693   0.000
 -0.000  -0.000   0.000   0.000   4.130   0.000   0.000   7.693
 -0.000  -0.000   7.693   0.000   0.000  14.343   0.000   0.000
  0.000   0.000   0.000   7.693   0.000   0.000  14.343   0.000
 -0.000  -0.000   0.000   0.000   7.693   0.000   0.000  14.343
 total augmentation occupancy for first ion, spin component:           1
 11.636  -5.568   0.000   0.000   0.000  -0.000  -0.000  -0.000
 -5.568   2.733   0.000   0.000   0.000  -0.000  -0.000  -0.000
  0.000   0.000   5.182  -0.000   0.000  -1.465   0.000  -0.000
  0.000   0.000   0.000   5.182  -0.000   0.000  -1.465  -0.000
  0.000   0.000   0.000  -0.000   5.182   0.000   0.000  -1.465
 -0.000  -0.000  -1.465   0.000  -0.000   0.423  -0.000  -0.000
 -0.000  -0.000   0.000  -1.465  -0.000   0.000   0.423  -0.000
 -0.000  -0.000  -0.000   0.000  -1.465  -0.000   0.000   0.423


------------------------ aborting loop because EDIFF is reached ----------------------------------------


 


 total charge     
 
# of ion       s       p       d       tot
------------------------------------------
    1        0.765   1.147   0.000   1.912
    2        0.765   1.147   0.000   1.912
--------------------------------------------------
tot          1.531   2.293   0.000   3.824
 
    CHARGE:  cpu time    0.0737: real time    0.0740
    FORLOC:  cpu time    0.0005: real time    0.0005
    FORNL :  cpu time    0.1480: real time    0.1481
    STRESS:  cpu time   11.2996: real time   11.3777
    FORCOR:  cpu time    0.0472: real time    0.0472
    FORHAR:  cpu time    0.0026: real time    0.0026
    MIXING:  cpu time    0.0026: real time    0.0026
    OFIELD:  cpu time    0.0000: real time    0.0000

  FORCE on cell =-STRESS in cart. coord.  units (eV):
  Direction    XX          YY          ZZ          XY          YZ          ZX
  --------------------------------------------------------------------------------------
  Alpha Z     4.23224     4.23224     4.23224
  Ewald     -82.24655   -82.24655   -82.24655     0.00000    -0.00000     0.00000
  Hartree     4.14752     4.14752     4.14752     0.00000     0.00000     0.00000
  E(xc)     -25.83221   -26.09282   -25.86712     0.09083     0.01858     0.04301
  Local     -26.26955   -26.26955   -26.26955     0.00000     0.00000     0.00000
  n-local    82.56557    84.23109    78.10434     2.83405    -1.70095     0.72644
  augment   -10.94222   -10.94222   -10.94222    -0.00000    -0.00000    -0.00000
  Kinetic    65.31545    59.98580    62.82332     3.51698    -0.36486     1.22182
  Fock        0.00000     0.00000     0.00000     0.00000     0.00000     0.00000
  -------------------------------------------------------------------------------------
  Total       7.33258     7.33258     7.33258    -0.00000     0.00000     0.00000
  in kB     369.25231   369.25231   369.25231    -0.00000     0.00000     0.00000
  external pressure =      369.25 kB  Pullay stress =        0.00 kB


 VOLUME and BASIS-vectors are now :
 -----------------------------------------------------------------------------
  energy-cutoff  :      800.00
  volume of cell :       31.82
      direct lattice vectors                 reciprocal lattice vectors
     0.000000000  2.515000000  2.515000000    -0.198807157  0.198807157  0.198807157
     2.515000000  0.000000000  2.515000000     0.198807157 -0.198807157  0.198807157
     2.515000000  2.515000000  0.000000000     0.198807157  0.198807157 -0.198807157

  length of vectors
     3.556747109  3.556747109  3.556747109     0.344344097  0.344344097  0.344344097


 FORCES acting on ions
    electron-ion (+dipol)            ewald-force                    non-local-force                 convergence-correction
 -----------------------------------------------------------------------------------------------
   0.462E-07 0.462E-07 0.473E-07   -.781E-14 -.519E-14 -.412E-14   0.121E-15 0.149E-15 0.135E-15   -.189E-11 -.189E-11 -.188E-11
   -.462E-07 -.462E-07 -.473E-07   0.749E-14 0.502E-14 0.455E-14   -.937E-16 -.121E-15 -.111E-15   0.189E-11 0.188E-11 0.188E-11
 -----------------------------------------------------------------------------------------------
   -.467E-13 0.118E-12 0.102E-12   -.327E-15 -.168E-15 0.429E-15   0.278E-16 0.278E-16 0.243E-16   -.211E-14 -.826E-15 -.142E-14
 
 
 POSITION                                       TOTAL-FORCE (eV/Angst)
 -----------------------------------------------------------------------------------
      4.40125      4.40125      4.40125        -0.000000     -0.000000     -0.000000
      0.62875      0.62875      0.62875         0.000000      0.000000      0.000000
 -----------------------------------------------------------------------------------
    total drift:                               -0.000000      0.000000      0.000000


--------------------------------------------------------------------------------------------------------



  FREE ENERGIE OF THE ION-ELECTRON SYSTEM (eV)
  ---------------------------------------------------
  free  energy   TOTEN  =       -16.75292387 eV

  energy  without entropy=      -16.75292387  energy(sigma->0) =      -16.75292387
 


--------------------------------------------------------------------------------------------------------


    POTLOK:  cpu time    0.3821: real time    0.3821


--------------------------------------------------------------------------------------------------------


     LOOP+:  cpu time   78.6264: real time   78.7867
    4ORBIT:  cpu time    0.0000: real time    0.0000
 


 total charge     
 
# of ion       s       p       d       tot
------------------------------------------
    1        0.765   1.147   0.000   1.912
    2        0.765   1.147   0.000   1.912
--------------------------------------------------
tot          1.531   2.293   0.000   3.824
 
 BZINTS: Fermi energy:    8.617187;    8.000000 electrons
         Band energy: 0.182108E+02;  BLOECHL correction:   -0.000000

 total amount of memory used by VASP MPI-rank0    48443. kBytes
=======================================================================

   base      :      30000. kBytes
   nonl-proj :       6714. kBytes
   fftplans  :       3139. kBytes
   grid      :       1559. kBytes
   one-center:          3. kBytes
   wavefun   :       7028. kBytes
 
  
  
 General timing and accounting informations for this job:
 ========================================================
  
                  Total CPU time used (sec):       81.352
                            User time (sec):       81.094
                          System time (sec):        0.258
                         Elapsed time (sec):       81.866
  
                   Maximum memory used (kb):      144872.
                   Average memory used (kb):           0.
  
                          Minor page faults:        53184
                          Major page faults:            9
                 Voluntary context switches:         1633
