 vasp.6.1.2 22Jul20 (build Mar 11 2021 17:42:27) complex                        
  
 executed on             LinuxIFC date 2021.03.11  17:53:27
 running on   40 total cores
 distrk:  each k-point on   20 cores,    2 groups
 distr:  one band on NCORE=  10 cores,    2 groups


--------------------------------------------------------------------------------------------------------


 INCAR:
 POTCAR:    PAW_PBE Si 05Jan2001                  
 POTCAR:    PAW_PBE Si 05Jan2001                  
   VRHFIN =Si: s2p2                                                                                 
   LEXCH  = PE                                                                                      
   EATOM  =   103.0669 eV,    7.5752 Ry                                                             
                                                                                                    
   TITEL  = PAW_PBE Si 05Jan2001                                                                    
   LULTRA =        F    use ultrasoft PP ?                                                          
   IUNSCR =        1    unscreen: 0-lin 1-nonlin 2-no                                               
   RPACOR =    1.500    partial core radius                                                         
   POMASS =   28.085; ZVAL   =    4.000    mass and valenz                                          
   RCORE  =    1.900    outmost cutoff radius                                                       
   RWIGS  =    2.480; RWIGS  =    1.312    wigner-seitz radius (au A)                               
   ENMAX  =  245.345; ENMIN  =  184.009 eV                                                          
   ICORE  =        2    local potential                                                             
   LCOR   =        T    correct aug charges                                                         
   LPAW   =        T    paw PP                                                                      
   EAUG   =  322.069                                                                                
   DEXC   =    0.000                                                                                
   RMAX   =    1.950    core radius for proj-oper                                                   
   RAUG   =    1.300    factor for augmentation sphere                                              
   RDEP   =    1.993    radius for radial grids                                                     
   RDEPT  =    1.837    core radius for aug-charge                                                  
                                                                                                    
   Atomic configuration                                                                             
    6 entries                                                                                       
     n  l   j            E        occ.                                                              
     1  0  0.50     -1785.8828   2.0000                                                             
     2  0  0.50      -139.4969   2.0000                                                             
     2  1  1.50       -95.5546   6.0000                                                             
     3  0  0.50       -10.8127   2.0000                                                             
     3  1  0.50        -4.0811   2.0000                                                             
     3  2  1.50        -4.0817   0.0000                                                             
   Description                                                                                      
     l       E           TYP  RCUT    TYP  RCUT                                                     
     0    -10.8127223     23  1.900                                                                 
     0     -7.6451159     23  1.900                                                                 
     1     -4.0811372     23  1.900                                                                 
     1      2.4879257     23  1.900                                                                 
     2     -4.0817478      7  1.900                                                                 
  local pseudopotential read in
  partial core-charges read in
  partial kinetic energy density read in
  atomic valenz-charges read in
  non local Contribution for L=           0  read in
    real space projection operators read in
  non local Contribution for L=           0  read in
    real space projection operators read in
  non local Contribution for L=           1  read in
    real space projection operators read in
  non local Contribution for L=           1  read in
    real space projection operators read in
    PAW grid and wavefunctions read in
 
   number of l-projection  operators is LMAX  =           4
   number of lm-projection operators is LMMAX =           8
 
  PAW_PBE Si 05Jan2001                  :
 energy of atom  1       EATOM= -103.0669
 kinetic energy error for atom=    0.0002 (will be added to EATOM!!)
 
 
 POSCAR: Unknown
  positions in direct lattice
  No initial velocities read in

 METAGGA = R2SCA    LMAXTAU =  6    LMIXTAU =  T

 exchange correlation table for  LEXCH =        8
   RHO(1)=    0.500       N(1)  =     2000
   RHO(2)=  100.500       N(2)  =     4000
 


--------------------------------------------------------------------------------------------------------


 ion  position               nearest neighbor table
   1  0.875  0.875  0.875-   2 2.22   2 2.22   2 2.22   2 2.22
   2  0.125  0.125  0.125-   1 2.22   1 2.22   1 2.22   1 2.22
 
  LATTYP: Found a face centered cubic cell.
 ALAT       =     5.1300000000
  
  Lattice vectors:
  
 A1 = (   0.0000000000,   2.5650000000,   2.5650000000)
 A2 = (   2.5650000000,   0.0000000000,   2.5650000000)
 A3 = (   2.5650000000,   2.5650000000,   0.0000000000)


Analysis of symmetry for initial positions (statically):
=====================================================================
 Subroutine PRICEL returns:
 Original cell was already a primitive cell.
 

 Routine SETGRP: Setting up the symmetry group for a 
 face centered cubic supercell.


 Subroutine GETGRP returns: Found 48 space group operations
 (whereof 12 operations were pure point group operations)
 out of a pool of 48 trial point group operations.


The static configuration has the point symmetry D_3d.
 The point group associated with its full space group is O_h .


Analysis of symmetry for dynamics (positions and initial velocities):
=====================================================================
 Subroutine PRICEL returns:
 Original cell was already a primitive cell.
 

 Routine SETGRP: Setting up the symmetry group for a 
 face centered cubic supercell.


 Subroutine GETGRP returns: Found 48 space group operations
 (whereof 12 operations were pure point group operations)
 out of a pool of 48 trial point group operations.


The dynamic configuration has the point symmetry D_3d.
 The point group associated with its full space group is O_h .


 Subroutine INISYM returns: Found 48 space group operations
 (whereof 12 operations are pure point group operations),
 and found     1 'primitive' translations


----------------------------------------------------------------------------------------

                                     Primitive cell                                     

  volume of cell :      33.7514

  direct lattice vectors                    reciprocal lattice vectors
     0.000000000  2.565000000  2.565000000    -0.194931774  0.194931774  0.194931774
     2.565000000  0.000000000  2.565000000     0.194931774 -0.194931774  0.194931774
     2.565000000  2.565000000  0.000000000     0.194931774  0.194931774 -0.194931774

  length of vectors
     3.627457787  3.627457787  3.627457787     0.337631736  0.337631736  0.337631736

  position of ions in fractional coordinates (direct lattice)
     0.875000000  0.875000000  0.875000000
     0.125000000  0.125000000  0.125000000

  ion indices of the primitive-cell ions
   primitive index   ion index
                 1           1
                 2           2

----------------------------------------------------------------------------------------

 
 

Automatic generation of k-mesh.
 generate k-points for:   27   27   27
Space group operators:
 irot       det(A)        alpha          n_x          n_y          n_z        tau_x        tau_y        tau_z
    1     1.000000     0.000000     1.000000     0.000000     0.000000     0.000000     0.000000     0.000000
    2    -1.000000     0.000000     1.000000     0.000000     0.000000     0.000000     0.000000     0.000000
    3     1.000000   120.000000    -0.577350    -0.577350    -0.577350     0.000000     0.000000     0.000000
    4    -1.000000   120.000000    -0.577350    -0.577350    -0.577350     0.000000     0.000000     0.000000
    5     1.000000   120.000000     0.577350     0.577350     0.577350     0.000000     0.000000     0.000000
    6    -1.000000   120.000000     0.577350     0.577350     0.577350     0.000000     0.000000     0.000000
    7     1.000000   180.000000     0.000000    -0.707107     0.707107     0.000000     0.000000     0.000000
    8    -1.000000   180.000000     0.000000    -0.707107     0.707107     0.000000     0.000000     0.000000
    9     1.000000   180.000000     0.707107    -0.707107     0.000000     0.000000     0.000000     0.000000
   10    -1.000000   180.000000     0.707107    -0.707107     0.000000     0.000000     0.000000     0.000000
   11     1.000000   180.000000     0.707107     0.000000    -0.707107     0.000000     0.000000     0.000000
   12    -1.000000   180.000000     0.707107     0.000000    -0.707107     0.000000     0.000000     0.000000
   13     1.000000    90.000000     0.000000     0.000000    -1.000000    -0.500000     0.000000     0.000000
   14    -1.000000    90.000000     0.000000     0.000000    -1.000000    -0.500000     0.000000     0.000000
   15     1.000000   180.000000     0.000000     0.707107     0.707107    -0.500000     0.000000     0.000000
   16    -1.000000   180.000000     0.000000     0.707107     0.707107    -0.500000     0.000000     0.000000
   17     1.000000    90.000000     0.000000     1.000000     0.000000    -0.500000     0.000000     0.000000
   18    -1.000000    90.000000     0.000000     1.000000     0.000000    -0.500000     0.000000     0.000000
   19     1.000000   180.000000     0.000000     0.000000     1.000000     0.000000     0.000000    -0.500000
   20    -1.000000   180.000000     0.000000     0.000000     1.000000     0.000000     0.000000    -0.500000
   21     1.000000   120.000000    -0.577350     0.577350     0.577350     0.000000     0.000000    -0.500000
   22    -1.000000   120.000000    -0.577350     0.577350     0.577350     0.000000     0.000000    -0.500000
   23     1.000000   120.000000    -0.577350     0.577350    -0.577350     0.000000     0.000000    -0.500000
   24    -1.000000   120.000000    -0.577350     0.577350    -0.577350     0.000000     0.000000    -0.500000
   25     1.000000    90.000000     0.000000     0.000000     1.000000     0.000000    -0.500000     0.000000
   26    -1.000000    90.000000     0.000000     0.000000     1.000000     0.000000    -0.500000     0.000000
   27     1.000000    90.000000    -1.000000     0.000000     0.000000     0.000000    -0.500000     0.000000
   28    -1.000000    90.000000    -1.000000     0.000000     0.000000     0.000000    -0.500000     0.000000
   29     1.000000   180.000000     0.707107     0.000000     0.707107     0.000000    -0.500000     0.000000
   30    -1.000000   180.000000     0.707107     0.000000     0.707107     0.000000    -0.500000     0.000000
   31     1.000000   120.000000     0.577350    -0.577350     0.577350    -0.500000     0.000000     0.000000
   32    -1.000000   120.000000     0.577350    -0.577350     0.577350    -0.500000     0.000000     0.000000
   33     1.000000   120.000000    -0.577350    -0.577350     0.577350    -0.500000     0.000000     0.000000
   34    -1.000000   120.000000    -0.577350    -0.577350     0.577350    -0.500000     0.000000     0.000000
   35     1.000000   180.000000     1.000000     0.000000     0.000000    -0.500000     0.000000     0.000000
   36    -1.000000   180.000000     1.000000     0.000000     0.000000    -0.500000     0.000000     0.000000
   37     1.000000    90.000000     0.000000    -1.000000     0.000000     0.000000     0.000000    -0.500000
   38    -1.000000    90.000000     0.000000    -1.000000     0.000000     0.000000     0.000000    -0.500000
   39     1.000000   180.000000     0.707107     0.707107     0.000000     0.000000     0.000000    -0.500000
   40    -1.000000   180.000000     0.707107     0.707107     0.000000     0.000000     0.000000    -0.500000
   41     1.000000    90.000000     1.000000     0.000000     0.000000     0.000000     0.000000    -0.500000
   42    -1.000000    90.000000     1.000000     0.000000     0.000000     0.000000     0.000000    -0.500000
   43     1.000000   120.000000     0.577350    -0.577350    -0.577350     0.000000    -0.500000     0.000000
   44    -1.000000   120.000000     0.577350    -0.577350    -0.577350     0.000000    -0.500000     0.000000
   45     1.000000   180.000000     0.000000     1.000000     0.000000     0.000000    -0.500000     0.000000
   46    -1.000000   180.000000     0.000000     1.000000     0.000000     0.000000    -0.500000     0.000000
   47     1.000000   120.000000     0.577350     0.577350    -0.577350     0.000000    -0.500000     0.000000
   48    -1.000000   120.000000     0.577350     0.577350    -0.577350     0.000000    -0.500000     0.000000
 TETIRR: Found   2653 inequivalent tetrahedra from   118098
 
 Subroutine IBZKPT returns following result:
 ===========================================
 
 Found    560 irreducible k-points:
 
 Following reciprocal coordinates:
            Coordinates               Weight
  0.000000  0.000000  0.000000      1.000000
  0.037037  0.000000  0.000000      8.000000
  0.074074  0.000000  0.000000      8.000000
  0.111111  0.000000  0.000000      8.000000
  0.148148  0.000000  0.000000      8.000000
  0.185185  0.000000  0.000000      8.000000
  0.222222  0.000000  0.000000      8.000000
  0.259259  0.000000  0.000000      8.000000
  0.296296  0.000000  0.000000      8.000000
  0.333333  0.000000  0.000000      8.000000
  0.370370  0.000000  0.000000      8.000000
  0.407407  0.000000  0.000000      8.000000
  0.444444  0.000000  0.000000      8.000000
  0.481481  0.000000  0.000000      8.000000
  0.037037  0.037037  0.000000      6.000000
  0.074074  0.037037  0.000000     24.000000
  0.111111  0.037037  0.000000     24.000000
  0.148148  0.037037  0.000000     24.000000
  0.185185  0.037037  0.000000     24.000000
  0.222222  0.037037  0.000000     24.000000
  0.259259  0.037037  0.000000     24.000000
  0.296296  0.037037  0.000000     24.000000
  0.333333  0.037037  0.000000     24.000000
  0.370370  0.037037  0.000000     24.000000
  0.407407  0.037037  0.000000     24.000000
  0.444444  0.037037  0.000000     24.000000
  0.481481  0.037037  0.000000     24.000000
 -0.481481  0.037037  0.000000     24.000000
 -0.444444  0.037037  0.000000     24.000000
 -0.407407  0.037037  0.000000     24.000000
 -0.370370  0.037037  0.000000     24.000000
 -0.333333  0.037037  0.000000     24.000000
 -0.296296  0.037037  0.000000     24.000000
 -0.259259  0.037037  0.000000     24.000000
 -0.222222  0.037037  0.000000     24.000000
 -0.185185  0.037037  0.000000     24.000000
 -0.148148  0.037037  0.000000     24.000000
 -0.111111  0.037037  0.000000     24.000000
 -0.074074  0.037037  0.000000     24.000000
 -0.037037  0.037037  0.000000     12.000000
  0.074074  0.074074  0.000000      6.000000
  0.111111  0.074074  0.000000     24.000000
  0.148148  0.074074  0.000000     24.000000
  0.185185  0.074074  0.000000     24.000000
  0.222222  0.074074  0.000000     24.000000
  0.259259  0.074074  0.000000     24.000000
  0.296296  0.074074  0.000000     24.000000
  0.333333  0.074074  0.000000     24.000000
  0.370370  0.074074  0.000000     24.000000
  0.407407  0.074074  0.000000     24.000000
  0.444444  0.074074  0.000000     24.000000
  0.481481  0.074074  0.000000     24.000000
 -0.481481  0.074074  0.000000     24.000000
 -0.444444  0.074074  0.000000     24.000000
 -0.407407  0.074074  0.000000     24.000000
 -0.370370  0.074074  0.000000     24.000000
 -0.333333  0.074074  0.000000     24.000000
 -0.296296  0.074074  0.000000     24.000000
 -0.259259  0.074074  0.000000     24.000000
 -0.222222  0.074074  0.000000     24.000000
 -0.185185  0.074074  0.000000     24.000000
 -0.148148  0.074074  0.000000     24.000000
 -0.111111  0.074074  0.000000     24.000000
 -0.074074  0.074074  0.000000     12.000000
  0.111111  0.111111  0.000000      6.000000
  0.148148  0.111111  0.000000     24.000000
  0.185185  0.111111  0.000000     24.000000
  0.222222  0.111111  0.000000     24.000000
  0.259259  0.111111  0.000000     24.000000
  0.296296  0.111111  0.000000     24.000000
  0.333333  0.111111  0.000000     24.000000
  0.370370  0.111111  0.000000     24.000000
  0.407407  0.111111  0.000000     24.000000
  0.444444  0.111111  0.000000     24.000000
  0.481481  0.111111  0.000000     24.000000
 -0.481481  0.111111  0.000000     24.000000
 -0.444444  0.111111  0.000000     24.000000
 -0.407407  0.111111  0.000000     24.000000
 -0.370370  0.111111  0.000000     24.000000
 -0.333333  0.111111  0.000000     24.000000
 -0.296296  0.111111  0.000000     24.000000
 -0.259259  0.111111  0.000000     24.000000
 -0.222222  0.111111  0.000000     24.000000
 -0.185185  0.111111  0.000000     24.000000
 -0.148148  0.111111  0.000000     24.000000
 -0.111111  0.111111  0.000000     12.000000
  0.148148  0.148148  0.000000      6.000000
  0.185185  0.148148  0.000000     24.000000
  0.222222  0.148148  0.000000     24.000000
  0.259259  0.148148  0.000000     24.000000
  0.296296  0.148148  0.000000     24.000000
  0.333333  0.148148  0.000000     24.000000
  0.370370  0.148148  0.000000     24.000000
  0.407407  0.148148  0.000000     24.000000
  0.444444  0.148148  0.000000     24.000000
  0.481481  0.148148  0.000000     24.000000
 -0.481481  0.148148  0.000000     24.000000
 -0.444444  0.148148  0.000000     24.000000
 -0.407407  0.148148  0.000000     24.000000
 -0.370370  0.148148  0.000000     24.000000
 -0.333333  0.148148  0.000000     24.000000
 -0.296296  0.148148  0.000000     24.000000
 -0.259259  0.148148  0.000000     24.000000
 -0.222222  0.148148  0.000000     24.000000
 -0.185185  0.148148  0.000000     24.000000
 -0.148148  0.148148  0.000000     12.000000
  0.185185  0.185185  0.000000      6.000000
  0.222222  0.185185  0.000000     24.000000
  0.259259  0.185185  0.000000     24.000000
  0.296296  0.185185  0.000000     24.000000
  0.333333  0.185185  0.000000     24.000000
  0.370370  0.185185  0.000000     24.000000
  0.407407  0.185185  0.000000     24.000000
  0.444444  0.185185  0.000000     24.000000
  0.481481  0.185185  0.000000     24.000000
 -0.481481  0.185185  0.000000     24.000000
 -0.444444  0.185185  0.000000     24.000000
 -0.407407  0.185185  0.000000     24.000000
 -0.370370  0.185185  0.000000     24.000000
 -0.333333  0.185185  0.000000     24.000000
 -0.296296  0.185185  0.000000     24.000000
 -0.259259  0.185185  0.000000     24.000000
 -0.222222  0.185185  0.000000     24.000000
 -0.185185  0.185185  0.000000     12.000000
  0.222222  0.222222  0.000000      6.000000
  0.259259  0.222222  0.000000     24.000000
  0.296296  0.222222  0.000000     24.000000
  0.333333  0.222222  0.000000     24.000000
  0.370370  0.222222  0.000000     24.000000
  0.407407  0.222222  0.000000     24.000000
  0.444444  0.222222  0.000000     24.000000
  0.481481  0.222222  0.000000     24.000000
 -0.481481  0.222222  0.000000     24.000000
 -0.444444  0.222222  0.000000     24.000000
 -0.407407  0.222222  0.000000     24.000000
 -0.370370  0.222222  0.000000     24.000000
 -0.333333  0.222222  0.000000     24.000000
 -0.296296  0.222222  0.000000     24.000000
 -0.259259  0.222222  0.000000     24.000000
 -0.222222  0.222222  0.000000     12.000000
  0.259259  0.259259  0.000000      6.000000
  0.296296  0.259259  0.000000     24.000000
  0.333333  0.259259  0.000000     24.000000
  0.370370  0.259259  0.000000     24.000000
  0.407407  0.259259  0.000000     24.000000
  0.444444  0.259259  0.000000     24.000000
  0.481481  0.259259  0.000000     24.000000
 -0.481481  0.259259  0.000000     24.000000
 -0.444444  0.259259  0.000000     24.000000
 -0.407407  0.259259  0.000000     24.000000
 -0.370370  0.259259  0.000000     24.000000
 -0.333333  0.259259  0.000000     24.000000
 -0.296296  0.259259  0.000000     24.000000
 -0.259259  0.259259  0.000000     12.000000
  0.296296  0.296296  0.000000      6.000000
  0.333333  0.296296  0.000000     24.000000
  0.370370  0.296296  0.000000     24.000000
  0.407407  0.296296  0.000000     24.000000
  0.444444  0.296296  0.000000     24.000000
  0.481481  0.296296  0.000000     24.000000
 -0.481481  0.296296  0.000000     24.000000
 -0.444444  0.296296  0.000000     24.000000
 -0.407407  0.296296  0.000000     24.000000
 -0.370370  0.296296  0.000000     24.000000
 -0.333333  0.296296  0.000000     24.000000
 -0.296296  0.296296  0.000000     12.000000
  0.333333  0.333333  0.000000      6.000000
  0.370370  0.333333  0.000000     24.000000
  0.407407  0.333333  0.000000     24.000000
  0.444444  0.333333  0.000000     24.000000
  0.481481  0.333333  0.000000     24.000000
 -0.481481  0.333333  0.000000     24.000000
 -0.444444  0.333333  0.000000     24.000000
 -0.407407  0.333333  0.000000     24.000000
 -0.370370  0.333333  0.000000     24.000000
 -0.333333  0.333333  0.000000     12.000000
  0.370370  0.370370  0.000000      6.000000
  0.407407  0.370370  0.000000     24.000000
  0.444444  0.370370  0.000000     24.000000
  0.481481  0.370370  0.000000     24.000000
 -0.481481  0.370370  0.000000     24.000000
 -0.444444  0.370370  0.000000     24.000000
 -0.407407  0.370370  0.000000     24.000000
 -0.370370  0.370370  0.000000     12.000000
  0.407407  0.407407  0.000000      6.000000
  0.444444  0.407407  0.000000     24.000000
  0.481481  0.407407  0.000000     24.000000
 -0.481481  0.407407  0.000000     24.000000
 -0.444444  0.407407  0.000000     24.000000
 -0.407407  0.407407  0.000000     12.000000
  0.444444  0.444444  0.000000      6.000000
  0.481481  0.444444  0.000000     24.000000
 -0.481481  0.444444  0.000000     24.000000
 -0.444444  0.444444  0.000000     12.000000
  0.481481  0.481481  0.000000      6.000000
 -0.481481  0.481481  0.000000     12.000000
  0.111111  0.074074  0.037037     24.000000
  0.148148  0.074074  0.037037     48.000000
  0.185185  0.074074  0.037037     48.000000
  0.222222  0.074074  0.037037     48.000000
  0.259259  0.074074  0.037037     48.000000
  0.296296  0.074074  0.037037     48.000000
  0.333333  0.074074  0.037037     48.000000
  0.370370  0.074074  0.037037     48.000000
  0.407407  0.074074  0.037037     48.000000
  0.444444  0.074074  0.037037     48.000000
  0.481481  0.074074  0.037037     48.000000
 -0.481481  0.074074  0.037037     48.000000
  0.148148  0.111111  0.037037     24.000000
  0.185185  0.111111  0.037037     48.000000
  0.222222  0.111111  0.037037     48.000000
  0.259259  0.111111  0.037037     48.000000
  0.296296  0.111111  0.037037     48.000000
  0.333333  0.111111  0.037037     48.000000
  0.370370  0.111111  0.037037     48.000000
  0.407407  0.111111  0.037037     48.000000
  0.444444  0.111111  0.037037     48.000000
  0.481481  0.111111  0.037037     48.000000
 -0.481481  0.111111  0.037037     48.000000
 -0.444444  0.111111  0.037037     48.000000
 -0.407407  0.111111  0.037037     48.000000
 -0.370370  0.111111  0.037037     48.000000
 -0.333333  0.111111  0.037037     48.000000
 -0.296296  0.111111  0.037037     48.000000
 -0.259259  0.111111  0.037037     48.000000
 -0.222222  0.111111  0.037037     48.000000
 -0.185185  0.111111  0.037037     48.000000
 -0.148148  0.111111  0.037037     48.000000
 -0.111111  0.111111  0.037037     48.000000
 -0.074074  0.111111  0.037037     24.000000
  0.185185  0.148148  0.037037     24.000000
  0.222222  0.148148  0.037037     48.000000
  0.259259  0.148148  0.037037     48.000000
  0.296296  0.148148  0.037037     48.000000
  0.333333  0.148148  0.037037     48.000000
  0.370370  0.148148  0.037037     48.000000
  0.407407  0.148148  0.037037     48.000000
  0.444444  0.148148  0.037037     48.000000
  0.481481  0.148148  0.037037     48.000000
 -0.481481  0.148148  0.037037     48.000000
 -0.444444  0.148148  0.037037     48.000000
 -0.407407  0.148148  0.037037     48.000000
 -0.370370  0.148148  0.037037     48.000000
 -0.333333  0.148148  0.037037     48.000000
 -0.296296  0.148148  0.037037     48.000000
 -0.259259  0.148148  0.037037     48.000000
 -0.222222  0.148148  0.037037     48.000000
 -0.185185  0.148148  0.037037     48.000000
 -0.148148  0.148148  0.037037     48.000000
 -0.111111  0.148148  0.037037     24.000000
  0.222222  0.185185  0.037037     24.000000
  0.259259  0.185185  0.037037     48.000000
  0.296296  0.185185  0.037037     48.000000
  0.333333  0.185185  0.037037     48.000000
  0.370370  0.185185  0.037037     48.000000
  0.407407  0.185185  0.037037     48.000000
  0.444444  0.185185  0.037037     48.000000
  0.481481  0.185185  0.037037     48.000000
 -0.481481  0.185185  0.037037     48.000000
 -0.444444  0.185185  0.037037     48.000000
 -0.407407  0.185185  0.037037     48.000000
 -0.370370  0.185185  0.037037     48.000000
 -0.333333  0.185185  0.037037     48.000000
 -0.296296  0.185185  0.037037     48.000000
 -0.259259  0.185185  0.037037     48.000000
 -0.222222  0.185185  0.037037     48.000000
 -0.185185  0.185185  0.037037     48.000000
 -0.148148  0.185185  0.037037     24.000000
  0.259259  0.222222  0.037037     24.000000
  0.296296  0.222222  0.037037     48.000000
  0.333333  0.222222  0.037037     48.000000
  0.370370  0.222222  0.037037     48.000000
  0.407407  0.222222  0.037037     48.000000
  0.444444  0.222222  0.037037     48.000000
  0.481481  0.222222  0.037037     48.000000
 -0.481481  0.222222  0.037037     48.000000
 -0.444444  0.222222  0.037037     48.000000
 -0.407407  0.222222  0.037037     48.000000
 -0.370370  0.222222  0.037037     48.000000
 -0.333333  0.222222  0.037037     48.000000
 -0.296296  0.222222  0.037037     48.000000
 -0.259259  0.222222  0.037037     48.000000
 -0.222222  0.222222  0.037037     48.000000
 -0.185185  0.222222  0.037037     24.000000
  0.296296  0.259259  0.037037     24.000000
  0.333333  0.259259  0.037037     48.000000
  0.370370  0.259259  0.037037     48.000000
  0.407407  0.259259  0.037037     48.000000
  0.444444  0.259259  0.037037     48.000000
  0.481481  0.259259  0.037037     48.000000
 -0.481481  0.259259  0.037037     48.000000
 -0.444444  0.259259  0.037037     48.000000
 -0.407407  0.259259  0.037037     48.000000
 -0.370370  0.259259  0.037037     48.000000
 -0.333333  0.259259  0.037037     48.000000
 -0.296296  0.259259  0.037037     48.000000
 -0.259259  0.259259  0.037037     48.000000
 -0.222222  0.259259  0.037037     24.000000
  0.333333  0.296296  0.037037     24.000000
  0.370370  0.296296  0.037037     48.000000
  0.407407  0.296296  0.037037     48.000000
  0.444444  0.296296  0.037037     48.000000
  0.481481  0.296296  0.037037     48.000000
 -0.481481  0.296296  0.037037     48.000000
 -0.444444  0.296296  0.037037     48.000000
 -0.407407  0.296296  0.037037     48.000000
 -0.370370  0.296296  0.037037     48.000000
 -0.333333  0.296296  0.037037     48.000000
 -0.296296  0.296296  0.037037     48.000000
 -0.259259  0.296296  0.037037     24.000000
  0.370370  0.333333  0.037037     24.000000
  0.407407  0.333333  0.037037     48.000000
  0.444444  0.333333  0.037037     48.000000
  0.481481  0.333333  0.037037     48.000000
 -0.481481  0.333333  0.037037     48.000000
 -0.444444  0.333333  0.037037     48.000000
 -0.407407  0.333333  0.037037     48.000000
 -0.370370  0.333333  0.037037     48.000000
 -0.333333  0.333333  0.037037     48.000000
 -0.296296  0.333333  0.037037     24.000000
  0.407407  0.370370  0.037037     24.000000
  0.444444  0.370370  0.037037     48.000000
  0.481481  0.370370  0.037037     48.000000
 -0.481481  0.370370  0.037037     48.000000
 -0.444444  0.370370  0.037037     48.000000
 -0.407407  0.370370  0.037037     48.000000
 -0.370370  0.370370  0.037037     48.000000
 -0.333333  0.370370  0.037037     24.000000
  0.444444  0.407407  0.037037     24.000000
  0.481481  0.407407  0.037037     48.000000
 -0.481481  0.407407  0.037037     48.000000
 -0.444444  0.407407  0.037037     48.000000
 -0.407407  0.407407  0.037037     48.000000
 -0.370370  0.407407  0.037037     24.000000
  0.481481  0.444444  0.037037     24.000000
 -0.481481  0.444444  0.037037     48.000000
 -0.444444  0.444444  0.037037     48.000000
 -0.407407  0.444444  0.037037     24.000000
 -0.481481  0.481481  0.037037     24.000000
 -0.444444  0.481481  0.037037     24.000000
  0.222222  0.148148  0.074074     24.000000
  0.259259  0.148148  0.074074     48.000000
  0.296296  0.148148  0.074074     48.000000
  0.333333  0.148148  0.074074     48.000000
  0.370370  0.148148  0.074074     48.000000
  0.407407  0.148148  0.074074     48.000000
  0.444444  0.148148  0.074074     48.000000
  0.481481  0.148148  0.074074     48.000000
 -0.481481  0.148148  0.074074     48.000000
 -0.444444  0.148148  0.074074     48.000000
  0.259259  0.185185  0.074074     24.000000
  0.296296  0.185185  0.074074     48.000000
  0.333333  0.185185  0.074074     48.000000
  0.370370  0.185185  0.074074     48.000000
  0.407407  0.185185  0.074074     48.000000
  0.444444  0.185185  0.074074     48.000000
  0.481481  0.185185  0.074074     48.000000
 -0.481481  0.185185  0.074074     48.000000
 -0.444444  0.185185  0.074074     48.000000
 -0.407407  0.185185  0.074074     48.000000
 -0.370370  0.185185  0.074074     48.000000
 -0.333333  0.185185  0.074074     48.000000
 -0.296296  0.185185  0.074074     48.000000
 -0.259259  0.185185  0.074074     48.000000
 -0.222222  0.185185  0.074074     48.000000
 -0.185185  0.185185  0.074074     48.000000
 -0.148148  0.185185  0.074074     48.000000
 -0.111111  0.185185  0.074074     24.000000
  0.296296  0.222222  0.074074     24.000000
  0.333333  0.222222  0.074074     48.000000
  0.370370  0.222222  0.074074     48.000000
  0.407407  0.222222  0.074074     48.000000
  0.444444  0.222222  0.074074     48.000000
  0.481481  0.222222  0.074074     48.000000
 -0.481481  0.222222  0.074074     48.000000
 -0.444444  0.222222  0.074074     48.000000
 -0.407407  0.222222  0.074074     48.000000
 -0.370370  0.222222  0.074074     48.000000
 -0.333333  0.222222  0.074074     48.000000
 -0.296296  0.222222  0.074074     48.000000
 -0.259259  0.222222  0.074074     48.000000
 -0.222222  0.222222  0.074074     48.000000
 -0.185185  0.222222  0.074074     48.000000
 -0.148148  0.222222  0.074074     24.000000
  0.333333  0.259259  0.074074     24.000000
  0.370370  0.259259  0.074074     48.000000
  0.407407  0.259259  0.074074     48.000000
  0.444444  0.259259  0.074074     48.000000
  0.481481  0.259259  0.074074     48.000000
 -0.481481  0.259259  0.074074     48.000000
 -0.444444  0.259259  0.074074     48.000000
 -0.407407  0.259259  0.074074     48.000000
 -0.370370  0.259259  0.074074     48.000000
 -0.333333  0.259259  0.074074     48.000000
 -0.296296  0.259259  0.074074     48.000000
 -0.259259  0.259259  0.074074     48.000000
 -0.222222  0.259259  0.074074     48.000000
 -0.185185  0.259259  0.074074     24.000000
  0.370370  0.296296  0.074074     24.000000
  0.407407  0.296296  0.074074     48.000000
  0.444444  0.296296  0.074074     48.000000
  0.481481  0.296296  0.074074     48.000000
 -0.481481  0.296296  0.074074     48.000000
 -0.444444  0.296296  0.074074     48.000000
 -0.407407  0.296296  0.074074     48.000000
 -0.370370  0.296296  0.074074     48.000000
 -0.333333  0.296296  0.074074     48.000000
 -0.296296  0.296296  0.074074     48.000000
 -0.259259  0.296296  0.074074     48.000000
 -0.222222  0.296296  0.074074     24.000000
  0.407407  0.333333  0.074074     24.000000
  0.444444  0.333333  0.074074     48.000000
  0.481481  0.333333  0.074074     48.000000
 -0.481481  0.333333  0.074074     48.000000
 -0.444444  0.333333  0.074074     48.000000
 -0.407407  0.333333  0.074074     48.000000
 -0.370370  0.333333  0.074074     48.000000
 -0.333333  0.333333  0.074074     48.000000
 -0.296296  0.333333  0.074074     48.000000
 -0.259259  0.333333  0.074074     24.000000
  0.444444  0.370370  0.074074     24.000000
  0.481481  0.370370  0.074074     48.000000
 -0.481481  0.370370  0.074074     48.000000
 -0.444444  0.370370  0.074074     48.000000
 -0.407407  0.370370  0.074074     48.000000
 -0.370370  0.370370  0.074074     48.000000
 -0.333333  0.370370  0.074074     48.000000
 -0.296296  0.370370  0.074074     24.000000
  0.481481  0.407407  0.074074     24.000000
 -0.481481  0.407407  0.074074     48.000000
 -0.444444  0.407407  0.074074     48.000000
 -0.407407  0.407407  0.074074     48.000000
 -0.370370  0.407407  0.074074     48.000000
 -0.333333  0.407407  0.074074     24.000000
 -0.481481  0.444444  0.074074     24.000000
 -0.444444  0.444444  0.074074     48.000000
 -0.407407  0.444444  0.074074     48.000000
 -0.370370  0.444444  0.074074     24.000000
 -0.444444  0.481481  0.074074     24.000000
 -0.407407  0.481481  0.074074     24.000000
  0.333333  0.222222  0.111111     24.000000
  0.370370  0.222222  0.111111     48.000000
  0.407407  0.222222  0.111111     48.000000
  0.444444  0.222222  0.111111     48.000000
  0.481481  0.222222  0.111111     48.000000
 -0.481481  0.222222  0.111111     48.000000
 -0.444444  0.222222  0.111111     48.000000
 -0.407407  0.222222  0.111111     48.000000
  0.370370  0.259259  0.111111     24.000000
  0.407407  0.259259  0.111111     48.000000
  0.444444  0.259259  0.111111     48.000000
  0.481481  0.259259  0.111111     48.000000
 -0.481481  0.259259  0.111111     48.000000
 -0.444444  0.259259  0.111111     48.000000
 -0.407407  0.259259  0.111111     48.000000
 -0.370370  0.259259  0.111111     48.000000
 -0.333333  0.259259  0.111111     48.000000
 -0.296296  0.259259  0.111111     48.000000
 -0.259259  0.259259  0.111111     48.000000
 -0.222222  0.259259  0.111111     48.000000
 -0.185185  0.259259  0.111111     48.000000
 -0.148148  0.259259  0.111111     24.000000
  0.407407  0.296296  0.111111     24.000000
  0.444444  0.296296  0.111111     48.000000
  0.481481  0.296296  0.111111     48.000000
 -0.481481  0.296296  0.111111     48.000000
 -0.444444  0.296296  0.111111     48.000000
 -0.407407  0.296296  0.111111     48.000000
 -0.370370  0.296296  0.111111     48.000000
 -0.333333  0.296296  0.111111     48.000000
 -0.296296  0.296296  0.111111     48.000000
 -0.259259  0.296296  0.111111     48.000000
 -0.222222  0.296296  0.111111     48.000000
 -0.185185  0.296296  0.111111     24.000000
  0.444444  0.333333  0.111111     24.000000
  0.481481  0.333333  0.111111     48.000000
 -0.481481  0.333333  0.111111     48.000000
 -0.444444  0.333333  0.111111     48.000000
 -0.407407  0.333333  0.111111     48.000000
 -0.370370  0.333333  0.111111     48.000000
 -0.333333  0.333333  0.111111     48.000000
 -0.296296  0.333333  0.111111     48.000000
 -0.259259  0.333333  0.111111     48.000000
 -0.222222  0.333333  0.111111     24.000000
  0.481481  0.370370  0.111111     24.000000
 -0.481481  0.370370  0.111111     48.000000
 -0.444444  0.370370  0.111111     48.000000
 -0.407407  0.370370  0.111111     48.000000
 -0.370370  0.370370  0.111111     48.000000
 -0.333333  0.370370  0.111111     48.000000
 -0.296296  0.370370  0.111111     48.000000
 -0.259259  0.370370  0.111111     24.000000
 -0.481481  0.407407  0.111111     24.000000
 -0.444444  0.407407  0.111111     48.000000
 -0.407407  0.407407  0.111111     48.000000
 -0.370370  0.407407  0.111111     48.000000
 -0.333333  0.407407  0.111111     48.000000
 -0.296296  0.407407  0.111111     24.000000
 -0.444444  0.444444  0.111111     24.000000
 -0.407407  0.444444  0.111111     48.000000
 -0.370370  0.444444  0.111111     48.000000
 -0.333333  0.444444  0.111111     24.000000
 -0.407407  0.481481  0.111111     24.000000
 -0.370370  0.481481  0.111111     24.000000
  0.444444  0.296296  0.148148     24.000000
  0.481481  0.296296  0.148148     48.000000
 -0.481481  0.296296  0.148148     48.000000
 -0.444444  0.296296  0.148148     48.000000
 -0.407407  0.296296  0.148148     48.000000
 -0.370370  0.296296  0.148148     48.000000
  0.481481  0.333333  0.148148     24.000000
 -0.481481  0.333333  0.148148     48.000000
 -0.444444  0.333333  0.148148     48.000000
 -0.407407  0.333333  0.148148     48.000000
 -0.370370  0.333333  0.148148     48.000000
 -0.333333  0.333333  0.148148     48.000000
 -0.296296  0.333333  0.148148     48.000000
 -0.259259  0.333333  0.148148     48.000000
 -0.222222  0.333333  0.148148     48.000000
 -0.185185  0.333333  0.148148     24.000000
 -0.481481  0.370370  0.148148     24.000000
 -0.444444  0.370370  0.148148     48.000000
 -0.407407  0.370370  0.148148     48.000000
 -0.370370  0.370370  0.148148     48.000000
 -0.333333  0.370370  0.148148     48.000000
 -0.296296  0.370370  0.148148     48.000000
 -0.259259  0.370370  0.148148     48.000000
 -0.222222  0.370370  0.148148     24.000000
 -0.444444  0.407407  0.148148     24.000000
 -0.407407  0.407407  0.148148     48.000000
 -0.370370  0.407407  0.148148     48.000000
 -0.333333  0.407407  0.148148     48.000000
 -0.296296  0.407407  0.148148     48.000000
 -0.259259  0.407407  0.148148     24.000000
 -0.407407  0.444444  0.148148     24.000000
 -0.370370  0.444444  0.148148     48.000000
 -0.333333  0.444444  0.148148     48.000000
 -0.296296  0.444444  0.148148     24.000000
 -0.370370  0.481481  0.148148     24.000000
 -0.333333  0.481481  0.148148     24.000000
 -0.444444  0.370370  0.185185     24.000000
 -0.407407  0.370370  0.185185     48.000000
 -0.370370  0.370370  0.185185     48.000000
 -0.333333  0.370370  0.185185     48.000000
 -0.407407  0.407407  0.185185     24.000000
 -0.370370  0.407407  0.185185     48.000000
 -0.333333  0.407407  0.185185     48.000000
 -0.296296  0.407407  0.185185     48.000000
 -0.259259  0.407407  0.185185     48.000000
 -0.222222  0.407407  0.185185     24.000000
 -0.370370  0.444444  0.185185     24.000000
 -0.333333  0.444444  0.185185     48.000000
 -0.296296  0.444444  0.185185     48.000000
 -0.259259  0.444444  0.185185     24.000000
 -0.333333  0.481481  0.185185     24.000000
 -0.296296  0.481481  0.185185     24.000000
 -0.333333  0.444444  0.222222     24.000000
 -0.296296  0.444444  0.222222     48.000000
 -0.296296  0.481481  0.222222     24.000000
 -0.259259  0.481481  0.222222     24.000000
 
 Following cartesian coordinates:
            Coordinates               Weight
  0.000000  0.000000  0.000000      1.000000
 -0.037037  0.037037  0.037037      8.000000
 -0.074074  0.074074  0.074074      8.000000
 -0.111111  0.111111  0.111111      8.000000
 -0.148148  0.148148  0.148148      8.000000
 -0.185185  0.185185  0.185185      8.000000
 -0.222222  0.222222  0.222222      8.000000
 -0.259259  0.259259  0.259259      8.000000
 -0.296296  0.296296  0.296296      8.000000
 -0.333333  0.333333  0.333333      8.000000
 -0.370370  0.370370  0.370370      8.000000
 -0.407407  0.407407  0.407407      8.000000
 -0.444444  0.444444  0.444444      8.000000
 -0.481481  0.481481  0.481481      8.000000
  0.000000  0.000000  0.074074      6.000000
 -0.037037  0.037037  0.111111     24.000000
 -0.074074  0.074074  0.148148     24.000000
 -0.111111  0.111111  0.185185     24.000000
 -0.148148  0.148148  0.222222     24.000000
 -0.185185  0.185185  0.259259     24.000000
 -0.222222  0.222222  0.296296     24.000000
 -0.259259  0.259259  0.333333     24.000000
 -0.296296  0.296296  0.370370     24.000000
 -0.333333  0.333333  0.407407     24.000000
 -0.370370  0.370370  0.444444     24.000000
 -0.407407  0.407407  0.481481     24.000000
 -0.444444  0.444444  0.518519     24.000000
  0.518519 -0.518519 -0.444444     24.000000
  0.481481 -0.481481 -0.407407     24.000000
  0.444444 -0.444444 -0.370370     24.000000
  0.407407 -0.407407 -0.333333     24.000000
  0.370370 -0.370370 -0.296296     24.000000
  0.333333 -0.333333 -0.259259     24.000000
  0.296296 -0.296296 -0.222222     24.000000
  0.259259 -0.259259 -0.185185     24.000000
  0.222222 -0.222222 -0.148148     24.000000
  0.185185 -0.185185 -0.111111     24.000000
  0.148148 -0.148148 -0.074074     24.000000
  0.111111 -0.111111 -0.037037     24.000000
  0.074074 -0.074074  0.000000     12.000000
  0.000000  0.000000  0.148148      6.000000
 -0.037037  0.037037  0.185185     24.000000
 -0.074074  0.074074  0.222222     24.000000
 -0.111111  0.111111  0.259259     24.000000
 -0.148148  0.148148  0.296296     24.000000
 -0.185185  0.185185  0.333333     24.000000
 -0.222222  0.222222  0.370370     24.000000
 -0.259259  0.259259  0.407407     24.000000
 -0.296296  0.296296  0.444444     24.000000
 -0.333333  0.333333  0.481481     24.000000
 -0.370370  0.370370  0.518519     24.000000
 -0.407407  0.407407  0.555556     24.000000
  0.555556 -0.555556 -0.407407     24.000000
  0.518519 -0.518519 -0.370370     24.000000
  0.481481 -0.481481 -0.333333     24.000000
  0.444444 -0.444444 -0.296296     24.000000
  0.407407 -0.407407 -0.259259     24.000000
  0.370370 -0.370370 -0.222222     24.000000
  0.333333 -0.333333 -0.185185     24.000000
  0.296296 -0.296296 -0.148148     24.000000
  0.259259 -0.259259 -0.111111     24.000000
  0.222222 -0.222222 -0.074074     24.000000
  0.185185 -0.185185 -0.037037     24.000000
  0.148148 -0.148148  0.000000     12.000000
  0.000000  0.000000  0.222222      6.000000
 -0.037037  0.037037  0.259259     24.000000
 -0.074074  0.074074  0.296296     24.000000
 -0.111111  0.111111  0.333333     24.000000
 -0.148148  0.148148  0.370370     24.000000
 -0.185185  0.185185  0.407407     24.000000
 -0.222222  0.222222  0.444444     24.000000
 -0.259259  0.259259  0.481481     24.000000
 -0.296296  0.296296  0.518519     24.000000
 -0.333333  0.333333  0.555556     24.000000
 -0.370370  0.370370  0.592593     24.000000
  0.592593 -0.592593 -0.370370     24.000000
  0.555556 -0.555556 -0.333333     24.000000
  0.518519 -0.518519 -0.296296     24.000000
  0.481481 -0.481481 -0.259259     24.000000
  0.444444 -0.444444 -0.222222     24.000000
  0.407407 -0.407407 -0.185185     24.000000
  0.370370 -0.370370 -0.148148     24.000000
  0.333333 -0.333333 -0.111111     24.000000
  0.296296 -0.296296 -0.074074     24.000000
  0.259259 -0.259259 -0.037037     24.000000
  0.222222 -0.222222  0.000000     12.000000
  0.000000  0.000000  0.296296      6.000000
 -0.037037  0.037037  0.333333     24.000000
 -0.074074  0.074074  0.370370     24.000000
 -0.111111  0.111111  0.407407     24.000000
 -0.148148  0.148148  0.444444     24.000000
 -0.185185  0.185185  0.481481     24.000000
 -0.222222  0.222222  0.518519     24.000000
 -0.259259  0.259259  0.555556     24.000000
 -0.296296  0.296296  0.592593     24.000000
 -0.333333  0.333333  0.629630     24.000000
  0.629630 -0.629630 -0.333333     24.000000
  0.592593 -0.592593 -0.296296     24.000000
  0.555556 -0.555556 -0.259259     24.000000
  0.518519 -0.518519 -0.222222     24.000000
  0.481481 -0.481481 -0.185185     24.000000
  0.444444 -0.444444 -0.148148     24.000000
  0.407407 -0.407407 -0.111111     24.000000
  0.370370 -0.370370 -0.074074     24.000000
  0.333333 -0.333333 -0.037037     24.000000
  0.296296 -0.296296  0.000000     12.000000
  0.000000  0.000000  0.370370      6.000000
 -0.037037  0.037037  0.407407     24.000000
 -0.074074  0.074074  0.444444     24.000000
 -0.111111  0.111111  0.481481     24.000000
 -0.148148  0.148148  0.518519     24.000000
 -0.185185  0.185185  0.555556     24.000000
 -0.222222  0.222222  0.592593     24.000000
 -0.259259  0.259259  0.629630     24.000000
 -0.296296  0.296296  0.666667     24.000000
  0.666667 -0.666667 -0.296296     24.000000
  0.629630 -0.629630 -0.259259     24.000000
  0.592593 -0.592593 -0.222222     24.000000
  0.555556 -0.555556 -0.185185     24.000000
  0.518519 -0.518519 -0.148148     24.000000
  0.481481 -0.481481 -0.111111     24.000000
  0.444444 -0.444444 -0.074074     24.000000
  0.407407 -0.407407 -0.037037     24.000000
  0.370370 -0.370370  0.000000     12.000000
  0.000000  0.000000  0.444444      6.000000
 -0.037037  0.037037  0.481481     24.000000
 -0.074074  0.074074  0.518519     24.000000
 -0.111111  0.111111  0.555556     24.000000
 -0.148148  0.148148  0.592593     24.000000
 -0.185185  0.185185  0.629630     24.000000
 -0.222222  0.222222  0.666667     24.000000
 -0.259259  0.259259  0.703704     24.000000
  0.703704 -0.703704 -0.259259     24.000000
  0.666667 -0.666667 -0.222222     24.000000
  0.629630 -0.629630 -0.185185     24.000000
  0.592593 -0.592593 -0.148148     24.000000
  0.555556 -0.555556 -0.111111     24.000000
  0.518519 -0.518519 -0.074074     24.000000
  0.481481 -0.481481 -0.037037     24.000000
  0.444444 -0.444444  0.000000     12.000000
  0.000000  0.000000  0.518519      6.000000
 -0.037037  0.037037  0.555556     24.000000
 -0.074074  0.074074  0.592593     24.000000
 -0.111111  0.111111  0.629630     24.000000
 -0.148148  0.148148  0.666667     24.000000
 -0.185185  0.185185  0.703704     24.000000
 -0.222222  0.222222  0.740741     24.000000
  0.740741 -0.740741 -0.222222     24.000000
  0.703704 -0.703704 -0.185185     24.000000
  0.666667 -0.666667 -0.148148     24.000000
  0.629630 -0.629630 -0.111111     24.000000
  0.592593 -0.592593 -0.074074     24.000000
  0.555556 -0.555556 -0.037037     24.000000
  0.518519 -0.518519  0.000000     12.000000
  0.000000  0.000000  0.592593      6.000000
 -0.037037  0.037037  0.629630     24.000000
 -0.074074  0.074074  0.666667     24.000000
 -0.111111  0.111111  0.703704     24.000000
 -0.148148  0.148148  0.740741     24.000000
 -0.185185  0.185185  0.777778     24.000000
  0.777778 -0.777778 -0.185185     24.000000
  0.740741 -0.740741 -0.148148     24.000000
  0.703704 -0.703704 -0.111111     24.000000
  0.666667 -0.666667 -0.074074     24.000000
  0.629630 -0.629630 -0.037037     24.000000
  0.592593 -0.592593  0.000000     12.000000
  0.000000  0.000000  0.666667      6.000000
 -0.037037  0.037037  0.703704     24.000000
 -0.074074  0.074074  0.740741     24.000000
 -0.111111  0.111111  0.777778     24.000000
 -0.148148  0.148148  0.814815     24.000000
  0.814815 -0.814815 -0.148148     24.000000
  0.777778 -0.777778 -0.111111     24.000000
  0.740741 -0.740741 -0.074074     24.000000
  0.703704 -0.703704 -0.037037     24.000000
  0.666667 -0.666667  0.000000     12.000000
  0.000000  0.000000  0.740741      6.000000
 -0.037037  0.037037  0.777778     24.000000
 -0.074074  0.074074  0.814815     24.000000
 -0.111111  0.111111  0.851852     24.000000
  0.851852 -0.851852 -0.111111     24.000000
  0.814815 -0.814815 -0.074074     24.000000
  0.777778 -0.777778 -0.037037     24.000000
  0.740741 -0.740741  0.000000     12.000000
  0.000000  0.000000  0.814815      6.000000
 -0.037037  0.037037  0.851852     24.000000
 -0.074074  0.074074  0.888889     24.000000
  0.888889 -0.888889 -0.074074     24.000000
  0.851852 -0.851852 -0.037037     24.000000
  0.814815 -0.814815  0.000000     12.000000
  0.000000  0.000000  0.888889      6.000000
 -0.037037  0.037037  0.925926     24.000000
  0.925926 -0.925926 -0.037037     24.000000
  0.888889 -0.888889  0.000000     12.000000
  0.000000  0.000000  0.962963      6.000000
  0.962963 -0.962963  0.000000     12.000000
 -0.000000  0.074074  0.148148     24.000000
 -0.037037  0.111111  0.185185     48.000000
 -0.074074  0.148148  0.222222     48.000000
 -0.111111  0.185185  0.259259     48.000000
 -0.148148  0.222222  0.296296     48.000000
 -0.185185  0.259259  0.333333     48.000000
 -0.222222  0.296296  0.370370     48.000000
 -0.259259  0.333333  0.407407     48.000000
 -0.296296  0.370370  0.444444     48.000000
 -0.333333  0.407407  0.481481     48.000000
 -0.370370  0.444444  0.518519     48.000000
  0.592593 -0.518519 -0.444444     48.000000
  0.000000  0.074074  0.222222     24.000000
 -0.037037  0.111111  0.259259     48.000000
 -0.074074  0.148148  0.296296     48.000000
 -0.111111  0.185185  0.333333     48.000000
 -0.148148  0.222222  0.370370     48.000000
 -0.185185  0.259259  0.407407     48.000000
 -0.222222  0.296296  0.444444     48.000000
 -0.259259  0.333333  0.481481     48.000000
 -0.296296  0.370370  0.518519     48.000000
 -0.333333  0.407407  0.555556     48.000000
  0.629630 -0.555556 -0.407407     48.000000
  0.592593 -0.518519 -0.370370     48.000000
  0.555556 -0.481481 -0.333333     48.000000
  0.518519 -0.444444 -0.296296     48.000000
  0.481481 -0.407407 -0.259259     48.000000
  0.444444 -0.370370 -0.222222     48.000000
  0.407407 -0.333333 -0.185185     48.000000
  0.370370 -0.296296 -0.148148     48.000000
  0.333333 -0.259259 -0.111111     48.000000
  0.296296 -0.222222 -0.074074     48.000000
  0.259259 -0.185185 -0.037037     48.000000
  0.222222 -0.148148 -0.000000     24.000000
  0.000000  0.074074  0.296296     24.000000
 -0.037037  0.111111  0.333333     48.000000
 -0.074074  0.148148  0.370370     48.000000
 -0.111111  0.185185  0.407407     48.000000
 -0.148148  0.222222  0.444444     48.000000
 -0.185185  0.259259  0.481481     48.000000
 -0.222222  0.296296  0.518519     48.000000
 -0.259259  0.333333  0.555556     48.000000
 -0.296296  0.370370  0.592593     48.000000
  0.666667 -0.592593 -0.370370     48.000000
  0.629630 -0.555556 -0.333333     48.000000
  0.592593 -0.518519 -0.296296     48.000000
  0.555556 -0.481481 -0.259259     48.000000
  0.518519 -0.444444 -0.222222     48.000000
  0.481481 -0.407407 -0.185185     48.000000
  0.444444 -0.370370 -0.148148     48.000000
  0.407407 -0.333333 -0.111111     48.000000
  0.370370 -0.296296 -0.074074     48.000000
  0.333333 -0.259259 -0.037037     48.000000
  0.296296 -0.222222 -0.000000     24.000000
  0.000000  0.074074  0.370370     24.000000
 -0.037037  0.111111  0.407407     48.000000
 -0.074074  0.148148  0.444444     48.000000
 -0.111111  0.185185  0.481481     48.000000
 -0.148148  0.222222  0.518519     48.000000
 -0.185185  0.259259  0.555556     48.000000
 -0.222222  0.296296  0.592593     48.000000
 -0.259259  0.333333  0.629630     48.000000
  0.703704 -0.629630 -0.333333     48.000000
  0.666667 -0.592593 -0.296296     48.000000
  0.629630 -0.555556 -0.259259     48.000000
  0.592593 -0.518519 -0.222222     48.000000
  0.555556 -0.481481 -0.185185     48.000000
  0.518519 -0.444444 -0.148148     48.000000
  0.481481 -0.407407 -0.111111     48.000000
  0.444444 -0.370370 -0.074074     48.000000
  0.407407 -0.333333 -0.037037     48.000000
  0.370370 -0.296296  0.000000     24.000000
  0.000000  0.074074  0.444444     24.000000
 -0.037037  0.111111  0.481481     48.000000
 -0.074074  0.148148  0.518519     48.000000
 -0.111111  0.185185  0.555556     48.000000
 -0.148148  0.222222  0.592593     48.000000
 -0.185185  0.259259  0.629630     48.000000
 -0.222222  0.296296  0.666667     48.000000
  0.740741 -0.666667 -0.296296     48.000000
  0.703704 -0.629630 -0.259259     48.000000
  0.666667 -0.592593 -0.222222     48.000000
  0.629630 -0.555556 -0.185185     48.000000
  0.592593 -0.518519 -0.148148     48.000000
  0.555556 -0.481481 -0.111111     48.000000
  0.518519 -0.444444 -0.074074     48.000000
  0.481481 -0.407407 -0.037037     48.000000
  0.444444 -0.370370  0.000000     24.000000
  0.000000  0.074074  0.518519     24.000000
 -0.037037  0.111111  0.555556     48.000000
 -0.074074  0.148148  0.592593     48.000000
 -0.111111  0.185185  0.629630     48.000000
 -0.148148  0.222222  0.666667     48.000000
 -0.185185  0.259259  0.703704     48.000000
  0.777778 -0.703704 -0.259259     48.000000
  0.740741 -0.666667 -0.222222     48.000000
  0.703704 -0.629630 -0.185185     48.000000
  0.666667 -0.592593 -0.148148     48.000000
  0.629630 -0.555556 -0.111111     48.000000
  0.592593 -0.518519 -0.074074     48.000000
  0.555556 -0.481481 -0.037037     48.000000
  0.518519 -0.444444  0.000000     24.000000
  0.000000  0.074074  0.592593     24.000000
 -0.037037  0.111111  0.629630     48.000000
 -0.074074  0.148148  0.666667     48.000000
 -0.111111  0.185185  0.703704     48.000000
 -0.148148  0.222222  0.740741     48.000000
  0.814815 -0.740741 -0.222222     48.000000
  0.777778 -0.703704 -0.185185     48.000000
  0.740741 -0.666667 -0.148148     48.000000
  0.703704 -0.629630 -0.111111     48.000000
  0.666667 -0.592593 -0.074074     48.000000
  0.629630 -0.555556 -0.037037     48.000000
  0.592593 -0.518519  0.000000     24.000000
  0.000000  0.074074  0.666667     24.000000
 -0.037037  0.111111  0.703704     48.000000
 -0.074074  0.148148  0.740741     48.000000
 -0.111111  0.185185  0.777778     48.000000
  0.851852 -0.777778 -0.185185     48.000000
  0.814815 -0.740741 -0.148148     48.000000
  0.777778 -0.703704 -0.111111     48.000000
  0.740741 -0.666667 -0.074074     48.000000
  0.703704 -0.629630 -0.037037     48.000000
  0.666667 -0.592593  0.000000     24.000000
  0.000000  0.074074  0.740741     24.000000
 -0.037037  0.111111  0.777778     48.000000
 -0.074074  0.148148  0.814815     48.000000
  0.888889 -0.814815 -0.148148     48.000000
  0.851852 -0.777778 -0.111111     48.000000
  0.814815 -0.740741 -0.074074     48.000000
  0.777778 -0.703704 -0.037037     48.000000
  0.740741 -0.666667  0.000000     24.000000
  0.000000  0.074074  0.814815     24.000000
 -0.037037  0.111111  0.851852     48.000000
  0.925926 -0.851852 -0.111111     48.000000
  0.888889 -0.814815 -0.074074     48.000000
  0.851852 -0.777778 -0.037037     48.000000
  0.814815 -0.740741 -0.000000     24.000000
  0.000000  0.074074  0.888889     24.000000
  0.962963 -0.888889 -0.074074     48.000000
  0.925926 -0.851852 -0.037037     48.000000
  0.888889 -0.814815  0.000000     24.000000
  1.000000 -0.925926 -0.037037     24.000000
  0.962963 -0.888889  0.000000     24.000000
  0.000000  0.148148  0.296296     24.000000
 -0.037037  0.185185  0.333333     48.000000
 -0.074074  0.222222  0.370370     48.000000
 -0.111111  0.259259  0.407407     48.000000
 -0.148148  0.296296  0.444444     48.000000
 -0.185185  0.333333  0.481481     48.000000
 -0.222222  0.370370  0.518519     48.000000
 -0.259259  0.407407  0.555556     48.000000
  0.703704 -0.555556 -0.407407     48.000000
  0.666667 -0.518519 -0.370370     48.000000
  0.000000  0.148148  0.370370     24.000000
 -0.037037  0.185185  0.407407     48.000000
 -0.074074  0.222222  0.444444     48.000000
 -0.111111  0.259259  0.481481     48.000000
 -0.148148  0.296296  0.518519     48.000000
 -0.185185  0.333333  0.555556     48.000000
 -0.222222  0.370370  0.592593     48.000000
  0.740741 -0.592593 -0.370370     48.000000
  0.703704 -0.555556 -0.333333     48.000000
  0.666667 -0.518519 -0.296296     48.000000
  0.629630 -0.481481 -0.259259     48.000000
  0.592593 -0.444444 -0.222222     48.000000
  0.555556 -0.407407 -0.185185     48.000000
  0.518519 -0.370370 -0.148148     48.000000
  0.481481 -0.333333 -0.111111     48.000000
  0.444444 -0.296296 -0.074074     48.000000
  0.407407 -0.259259 -0.037037     48.000000
  0.370370 -0.222222 -0.000000     24.000000
  0.000000  0.148148  0.444444     24.000000
 -0.037037  0.185185  0.481481     48.000000
 -0.074074  0.222222  0.518519     48.000000
 -0.111111  0.259259  0.555556     48.000000
 -0.148148  0.296296  0.592593     48.000000
 -0.185185  0.333333  0.629630     48.000000
  0.777778 -0.629630 -0.333333     48.000000
  0.740741 -0.592593 -0.296296     48.000000
  0.703704 -0.555556 -0.259259     48.000000
  0.666667 -0.518519 -0.222222     48.000000
  0.629630 -0.481481 -0.185185     48.000000
  0.592593 -0.444444 -0.148148     48.000000
  0.555556 -0.407407 -0.111111     48.000000
  0.518519 -0.370370 -0.074074     48.000000
  0.481481 -0.333333 -0.037037     48.000000
  0.444444 -0.296296  0.000000     24.000000
  0.000000  0.148148  0.518519     24.000000
 -0.037037  0.185185  0.555556     48.000000
 -0.074074  0.222222  0.592593     48.000000
 -0.111111  0.259259  0.629630     48.000000
 -0.148148  0.296296  0.666667     48.000000
  0.814815 -0.666667 -0.296296     48.000000
  0.777778 -0.629630 -0.259259     48.000000
  0.740741 -0.592593 -0.222222     48.000000
  0.703704 -0.555556 -0.185185     48.000000
  0.666667 -0.518519 -0.148148     48.000000
  0.629630 -0.481481 -0.111111     48.000000
  0.592593 -0.444444 -0.074074     48.000000
  0.555556 -0.407407 -0.037037     48.000000
  0.518519 -0.370370  0.000000     24.000000
  0.000000  0.148148  0.592593     24.000000
 -0.037037  0.185185  0.629630     48.000000
 -0.074074  0.222222  0.666667     48.000000
 -0.111111  0.259259  0.703704     48.000000
  0.851852 -0.703704 -0.259259     48.000000
  0.814815 -0.666667 -0.222222     48.000000
  0.777778 -0.629630 -0.185185     48.000000
  0.740741 -0.592593 -0.148148     48.000000
  0.703704 -0.555556 -0.111111     48.000000
  0.666667 -0.518519 -0.074074     48.000000
  0.629630 -0.481481 -0.037037     48.000000
  0.592593 -0.444444  0.000000     24.000000
  0.000000  0.148148  0.666667     24.000000
 -0.037037  0.185185  0.703704     48.000000
 -0.074074  0.222222  0.740741     48.000000
  0.888889 -0.740741 -0.222222     48.000000
  0.851852 -0.703704 -0.185185     48.000000
  0.814815 -0.666667 -0.148148     48.000000
  0.777778 -0.629630 -0.111111     48.000000
  0.740741 -0.592593 -0.074074     48.000000
  0.703704 -0.555556 -0.037037     48.000000
  0.666667 -0.518519  0.000000     24.000000
  0.000000  0.148148  0.740741     24.000000
 -0.037037  0.185185  0.777778     48.000000
  0.925926 -0.777778 -0.185185     48.000000
  0.888889 -0.740741 -0.148148     48.000000
  0.851852 -0.703704 -0.111111     48.000000
  0.814815 -0.666667 -0.074074     48.000000
  0.777778 -0.629630 -0.037037     48.000000
  0.740741 -0.592593  0.000000     24.000000
  0.000000  0.148148  0.814815     24.000000
  0.962963 -0.814815 -0.148148     48.000000
  0.925926 -0.777778 -0.111111     48.000000
  0.888889 -0.740741 -0.074074     48.000000
  0.851852 -0.703704 -0.037037     48.000000
  0.814815 -0.666667 -0.000000     24.000000
  1.000000 -0.851852 -0.111111     24.000000
  0.962963 -0.814815 -0.074074     48.000000
  0.925926 -0.777778 -0.037037     48.000000
  0.888889 -0.740741 -0.000000     24.000000
  1.000000 -0.851852 -0.037037     24.000000
  0.962963 -0.814815  0.000000     24.000000
  0.000000  0.222222  0.444444     24.000000
 -0.037037  0.259259  0.481481     48.000000
 -0.074074  0.296296  0.518519     48.000000
 -0.111111  0.333333  0.555556     48.000000
 -0.148148  0.370370  0.592593     48.000000
  0.814815 -0.592593 -0.370370     48.000000
  0.777778 -0.555556 -0.333333     48.000000
  0.740741 -0.518519 -0.296296     48.000000
  0.000000  0.222222  0.518519     24.000000
 -0.037037  0.259259  0.555556     48.000000
 -0.074074  0.296296  0.592593     48.000000
 -0.111111  0.333333  0.629630     48.000000
  0.851852 -0.629630 -0.333333     48.000000
  0.814815 -0.592593 -0.296296     48.000000
  0.777778 -0.555556 -0.259259     48.000000
  0.740741 -0.518519 -0.222222     48.000000
  0.703704 -0.481481 -0.185185     48.000000
  0.666667 -0.444444 -0.148148     48.000000
  0.629630 -0.407407 -0.111111     48.000000
  0.592593 -0.370370 -0.074074     48.000000
  0.555556 -0.333333 -0.037037     48.000000
  0.518519 -0.296296  0.000000     24.000000
  0.000000  0.222222  0.592593     24.000000
 -0.037037  0.259259  0.629630     48.000000
 -0.074074  0.296296  0.666667     48.000000
  0.888889 -0.666667 -0.296296     48.000000
  0.851852 -0.629630 -0.259259     48.000000
  0.814815 -0.592593 -0.222222     48.000000
  0.777778 -0.555556 -0.185185     48.000000
  0.740741 -0.518519 -0.148148     48.000000
  0.703704 -0.481481 -0.111111     48.000000
  0.666667 -0.444444 -0.074074     48.000000
  0.629630 -0.407407 -0.037037     48.000000
  0.592593 -0.370370  0.000000     24.000000
  0.000000  0.222222  0.666667     24.000000
 -0.037037  0.259259  0.703704     48.000000
  0.925926 -0.703704 -0.259259     48.000000
  0.888889 -0.666667 -0.222222     48.000000
  0.851852 -0.629630 -0.185185     48.000000
  0.814815 -0.592593 -0.148148     48.000000
  0.777778 -0.555556 -0.111111     48.000000
  0.740741 -0.518519 -0.074074     48.000000
  0.703704 -0.481481 -0.037037     48.000000
  0.666667 -0.444444  0.000000     24.000000
  0.000000  0.222222  0.740741     24.000000
  0.962963 -0.740741 -0.222222     48.000000
  0.925926 -0.703704 -0.185185     48.000000
  0.888889 -0.666667 -0.148148     48.000000
  0.851852 -0.629630 -0.111111     48.000000
  0.814815 -0.592593 -0.074074     48.000000
  0.777778 -0.555556 -0.037037     48.000000
  0.740741 -0.518519  0.000000     24.000000
  1.000000 -0.777778 -0.185185     24.000000
  0.962963 -0.740741 -0.148148     48.000000
  0.925926 -0.703704 -0.111111     48.000000
  0.888889 -0.666667 -0.074074     48.000000
  0.851852 -0.629630 -0.037037     48.000000
  0.814815 -0.592593 -0.000000     24.000000
  1.000000 -0.777778 -0.111111     24.000000
  0.962963 -0.740741 -0.074074     48.000000
  0.925926 -0.703704 -0.037037     48.000000
  0.888889 -0.666667 -0.000000     24.000000
  1.000000 -0.777778 -0.037037     24.000000
  0.962963 -0.740741 -0.000000     24.000000
  0.000000  0.296296  0.592593     24.000000
 -0.037037  0.333333  0.629630     48.000000
  0.925926 -0.629630 -0.333333     48.000000
  0.888889 -0.592593 -0.296296     48.000000
  0.851852 -0.555556 -0.259259     48.000000
  0.814815 -0.518519 -0.222222     48.000000
  0.000000  0.296296  0.666667     24.000000
  0.962963 -0.666667 -0.296296     48.000000
  0.925926 -0.629630 -0.259259     48.000000
  0.888889 -0.592593 -0.222222     48.000000
  0.851852 -0.555556 -0.185185     48.000000
  0.814815 -0.518519 -0.148148     48.000000
  0.777778 -0.481481 -0.111111     48.000000
  0.740741 -0.444444 -0.074074     48.000000
  0.703704 -0.407407 -0.037037     48.000000
  0.666667 -0.370370  0.000000     24.000000
  1.000000 -0.703704 -0.259259     24.000000
  0.962963 -0.666667 -0.222222     48.000000
  0.925926 -0.629630 -0.185185     48.000000
  0.888889 -0.592593 -0.148148     48.000000
  0.851852 -0.555556 -0.111111     48.000000
  0.814815 -0.518519 -0.074074     48.000000
  0.777778 -0.481481 -0.037037     48.000000
  0.740741 -0.444444  0.000000     24.000000
  1.000000 -0.703704 -0.185185     24.000000
  0.962963 -0.666667 -0.148148     48.000000
  0.925926 -0.629630 -0.111111     48.000000
  0.888889 -0.592593 -0.074074     48.000000
  0.851852 -0.555556 -0.037037     48.000000
  0.814815 -0.518519  0.000000     24.000000
  1.000000 -0.703704 -0.111111     24.000000
  0.962963 -0.666667 -0.074074     48.000000
  0.925926 -0.629630 -0.037037     48.000000
  0.888889 -0.592593  0.000000     24.000000
  1.000000 -0.703704 -0.037037     24.000000
  0.962963 -0.666667  0.000000     24.000000
  1.000000 -0.629630 -0.259259     24.000000
  0.962963 -0.592593 -0.222222     48.000000
  0.925926 -0.555556 -0.185185     48.000000
  0.888889 -0.518519 -0.148148     48.000000
  1.000000 -0.629630 -0.185185     24.000000
  0.962963 -0.592593 -0.148148     48.000000
  0.925926 -0.555556 -0.111111     48.000000
  0.888889 -0.518519 -0.074074     48.000000
  0.851852 -0.481481 -0.037037     48.000000
  0.814815 -0.444444  0.000000     24.000000
  1.000000 -0.629630 -0.111111     24.000000
  0.962963 -0.592593 -0.074074     48.000000
  0.925926 -0.555556 -0.037037     48.000000
  0.888889 -0.518519  0.000000     24.000000
  1.000000 -0.629630 -0.037037     24.000000
  0.962963 -0.592593  0.000000     24.000000
  1.000000 -0.555556 -0.111111     24.000000
  0.962963 -0.518519 -0.074074     48.000000
  1.000000 -0.555556 -0.037037     24.000000
  0.962963 -0.518519  0.000000     24.000000
 


--------------------------------------------------------------------------------------------------------




 Dimension of arrays:
   k-points           NKPTS =    560   k-points in BZ     NKDIM =    560   number of bands    NBANDS=      8
   number of dos      NEDOS =    301   number of ions     NIONS =      2
   non local maximal  LDIM  =      4   non local SUM 2l+1 LMDIM =      8
   total plane-waves  NPLWV =  46656
   max r-space proj   IRMAX =      1   max aug-charges    IRDMAX= 369904
   dimension x,y,z NGX =    36 NGY =   36 NGZ =   36
   dimension x,y,z NGXF=    72 NGYF=   72 NGZF=   72
   support grid    NGXF=   144 NGYF=  144 NGZF=  144
   ions per type =               2
   NGX,Y,Z   is equivalent  to a cutoff of  16.50, 16.50, 16.50 a.u.
   NGXF,Y,Z  is equivalent  to a cutoff of  33.00, 33.00, 33.00 a.u.

 SYSTEM =  Si                                      
 POSCAR =  Unknown                                 

 Startparameter for this run:
   NWRITE =      2    write-flag & timer
   PREC   = accura    normal or accurate (medium, high low for compatibility)
   ISTART =      0    job   : 0-new  1-cont  2-samecut
   ICHARG =      2    charge: 1-file 2-atom 10-const
   ISPIN  =      1    spin polarized calculation?
   LNONCOLLINEAR =      F non collinear calculations
   LSORBIT =      F    spin-orbit coupling
   INIWAV =      1    electr: 0-lowe 1-rand  2-diag
   LASPH  =      T    aspherical Exc in radial PAW
   METAGGA=      F    non-selfconsistent MetaGGA calc.

 Electronic Relaxation 1
   ENCUT  =  800.0 eV  58.80 Ry    7.67 a.u.   8.37  8.37  8.37*2*pi/ulx,y,z
   ENINI  =  800.0     initial cutoff
   ENAUG  =  900.0 eV  augmentation charge cutoff
   NELM   =    200;   NELMIN=  6; NELMDL=  0     # of ELM steps 
   EDIFF  = 0.1E-06   stopping-criterion for ELM
   LREAL  =      F    real-space projection
   NLSPLINE    = F    spline interpolate recip. space projectors
   LCOMPAT=      F    compatible to vasp.4.4
   GGA_COMPAT  = T    GGA compatible to vasp.4.4-vasp.4.6
   LMAXPAW     = -100 max onsite density
   LMAXMIX     =    4 max onsite mixed and CHGCAR
   VOSKOWN=      0    Vosko Wilk Nusair interpolation
   ROPT   =    0.00000
 Ionic relaxation
   EDIFFG = 0.1E-05   stopping-criterion for IOM
   NSW    =      0    number of steps for IOM
   NBLOCK =      1;   KBLOCK =      1    inner block; outer block 
   IBRION =     -1    ionic relax: 0-MD 1-quasi-New 2-CG
   NFREE  =      0    steps in history (QN), initial steepest desc. (CG)
   ISIF   =      2    stress and relaxation
   IWAVPR =     10    prediction:  0-non 1-charg 2-wave 3-comb
   ISYM   =      2    0-nonsym 1-usesym 2-fastsym
   LCORR  =      T    Harris-Foulkes like correction to forces

   POTIM  = 0.5000    time-step for ionic-motion
   TEIN   =    0.0    initial temperature
   TEBEG  =    0.0;   TEEND  =   0.0 temperature during run
   SMASS  =  -3.00    Nose mass-parameter (am)
   estimated Nose-frequenzy (Omega)   =  0.10E-29 period in steps = 0.13E+47 mass=  -0.301E-27a.u.
   SCALEE = 1.0000    scale energy and forces
   NPACO  =    256;   APACO  = 16.0  distance and # of slots for P.C.
   PSTRESS=    0.0 pullay stress

  Mass of Ions in am
   POMASS =  28.09
  Ionic Valenz
   ZVAL   =   4.00
  Atomic Wigner-Seitz radii
   RWIGS  =  -1.00
  virtual crystal weights 
   VCA    =   1.00
   NELECT =       8.0000    total number of electrons
   NUPDOWN=      -1.0000    fix difference up-down

 DOS related values:
   EMIN   =  10.00;   EMAX   =-10.00  energy-range for DOS
   EFERMI =   0.00
   ISMEAR =    -5;   SIGMA  =   0.20  broadening in eV -4-tet -1-fermi 0-gaus

 Electronic relaxation 2 (details)
   IALGO  =     38    algorithm
   LDIAG  =      T    sub-space diagonalisation (order eigenvalues)
   LSUBROT=      F    optimize rotation matrix (better conditioning)
   TURBO    =      0    0=normal 1=particle mesh
   IRESTART =      0    0=no restart 2=restart with 2 vectors
   NREBOOT  =      0    no. of reboots
   NMIN     =      0    reboot dimension
   EREF     =   0.00    reference energy to select bands
   IMIX   =      4    mixing-type and parameters
     AMIX     =   0.40;   BMIX     =  1.00
     AMIX_MAG =   1.60;   BMIX_MAG =  1.00
     AMIN     =   0.10
     WC   =   100.;   INIMIX=   1;  MIXPRE=   1;  MAXMIX= -45

 Intra band minimization:
   WEIMIN = 0.0000     energy-eigenvalue tresh-hold
   EBREAK =  0.31E-08  absolut break condition
   DEPER  =   0.30     relativ break condition  

   TIME   =   0.40     timestep for ELM

  volume/ion in A,a.u.               =      16.88       113.88
  Fermi-wavevector in a.u.,A,eV,Ry     =   1.013151  1.914578 13.966036  1.026475
  Thomas-Fermi vector in A             =   2.146303
 
 Write flags
   LWAVE        =      F    write WAVECAR
   LDOWNSAMPLE  =      F    k-point downsampling of WAVECAR
   LCHARG       =      F    write CHGCAR
   LVTOT        =      F    write LOCPOT, total local potential
   LVHAR        =      F    write LOCPOT, Hartree potential only
   LELF         =      F    write electronic localiz. function (ELF)
   LORBIT       =     11    0 simple, 1 ext, 2 COOP (PROOUT), +10 PAW based schemes


 Dipole corrections
   LMONO  =      F    monopole corrections only (constant potential shift)
   LDIPOL =      F    correct potential (dipole corrections)
   IDIPOL =      0    1-x, 2-y, 3-z, 4-all directions 
   EPSILON=  1.0000000 bulk dielectric constant

 Exchange correlation treatment:
   GGA     =    PE    GGA type
   LEXCH   =     8    internal setting for exchange type
   VOSKOWN=      0    Vosko Wilk Nusair interpolation
   LHFCALC =     F    Hartree Fock is set to
   LHFONE  =     F    Hartree Fock one center treatment
   AEXX    =    0.0000 exact exchange contribution

 Linear response parameters
   LEPSILON=     F    determine dielectric tensor
   LRPA    =     F    only Hartree local field effects (RPA)
   LNABLA  =     F    use nabla operator in PAW spheres
   LVEL    =     F    velocity operator in full k-point grid
   LINTERFAST=   F  fast interpolation
   KINTER  =     0    interpolate to denser k-point grid
   CSHIFT  =0.1000    complex shift for real part using Kramers Kronig
   OMEGAMAX=  -1.0    maximum frequency
   DEG_THRESHOLD= 0.2000000E-02 threshold for treating states as degnerate
   RTIME   =   -0.100 relaxation time in fs
  (WPLASMAI=    0.000 imaginary part of plasma frequency in eV, 0.658/RTIME)
   DFIELD  = 0.0000000 0.0000000 0.0000000 field for delta impulse in time
 
 Orbital magnetization related:
   ORBITALMAG=     F  switch on orbital magnetization
   LCHIMAG   =     F  perturbation theory with respect to B field
   DQ        =  0.001000  dq finite difference perturbation B field
   LLRAUG    =     F  two centre corrections for induced B field



--------------------------------------------------------------------------------------------------------


 Static calculation
 charge density and potential will be updated during run
 non-spin polarized calculation
 Variant of blocked Davidson
 Davidson routine will perform the subspace rotation
 perform sub-space diagonalisation
    after iterative eigenvector-optimisation
 modified Broyden-mixing scheme, WC =      100.0
 initial mixing is a Kerker type mixing with AMIX =  0.4000 and BMIX =      1.0000
 Hartree-type preconditioning will be used
 using additional bands            4
 reciprocal scheme for non local part
 use partial core corrections
 calculate Harris-corrections to forces 
   (improved forces if not selfconsistent)
 use gradient corrections 
 use of overlap-Matrix (Vanderbilt PP)
 Fermi weights with tetrahedron method with Bloechl corrections


--------------------------------------------------------------------------------------------------------


  energy-cutoff  :      800.00
  volume of cell :       33.75
      direct lattice vectors                 reciprocal lattice vectors
     0.000000000  2.565000000  2.565000000    -0.194931774  0.194931774  0.194931774
     2.565000000  0.000000000  2.565000000     0.194931774 -0.194931774  0.194931774
     2.565000000  2.565000000  0.000000000     0.194931774  0.194931774 -0.194931774

  length of vectors
     3.627457787  3.627457787  3.627457787     0.337631736  0.337631736  0.337631736


 
 k-points in units of 2pi/SCALE and weight: read from INCAR                         
   0.00000000  0.00000000  0.00000000       0.000
  -0.03703704  0.03703704  0.03703704       0.000
  -0.07407407  0.07407407  0.07407407       0.000
  -0.11111111  0.11111111  0.11111111       0.000
  -0.14814815  0.14814815  0.14814815       0.000
  -0.18518519  0.18518519  0.18518519       0.000
  -0.22222222  0.22222222  0.22222222       0.000
  -0.25925926  0.25925926  0.25925926       0.000
  -0.29629630  0.29629630  0.29629630       0.000
  -0.33333333  0.33333333  0.33333333       0.000
  -0.37037037  0.37037037  0.37037037       0.000
  -0.40740741  0.40740741  0.40740741       0.000
  -0.44444444  0.44444444  0.44444444       0.000
  -0.48148148  0.48148148  0.48148148       0.000
   0.00000000  0.00000000  0.07407407       0.000
  -0.03703704  0.03703704  0.11111111       0.001
  -0.07407407  0.07407407  0.14814815       0.001
  -0.11111111  0.11111111  0.18518519       0.001
  -0.14814815  0.14814815  0.22222222       0.001
  -0.18518519  0.18518519  0.25925926       0.001
  -0.22222222  0.22222222  0.29629630       0.001
  -0.25925926  0.25925926  0.33333333       0.001
  -0.29629630  0.29629630  0.37037037       0.001
  -0.33333333  0.33333333  0.40740741       0.001
  -0.37037037  0.37037037  0.44444444       0.001
  -0.40740741  0.40740741  0.48148148       0.001
  -0.44444444  0.44444444  0.51851852       0.001
   0.51851852 -0.51851852 -0.44444444       0.001
   0.48148148 -0.48148148 -0.40740741       0.001
   0.44444444 -0.44444444 -0.37037037       0.001
   0.40740741 -0.40740741 -0.33333333       0.001
   0.37037037 -0.37037037 -0.29629630       0.001
   0.33333333 -0.33333333 -0.25925926       0.001
   0.29629630 -0.29629630 -0.22222222       0.001
   0.25925926 -0.25925926 -0.18518519       0.001
   0.22222222 -0.22222222 -0.14814815       0.001
   0.18518519 -0.18518519 -0.11111111       0.001
   0.14814815 -0.14814815 -0.07407407       0.001
   0.11111111 -0.11111111 -0.03703704       0.001
   0.07407407 -0.07407407  0.00000000       0.001
   0.00000000  0.00000000  0.14814815       0.000
  -0.03703704  0.03703704  0.18518519       0.001
  -0.07407407  0.07407407  0.22222222       0.001
  -0.11111111  0.11111111  0.25925926       0.001
  -0.14814815  0.14814815  0.29629630       0.001
  -0.18518519  0.18518519  0.33333333       0.001
  -0.22222222  0.22222222  0.37037037       0.001
  -0.25925926  0.25925926  0.40740741       0.001
  -0.29629630  0.29629630  0.44444444       0.001
  -0.33333333  0.33333333  0.48148148       0.001
  -0.37037037  0.37037037  0.51851852       0.001
  -0.40740741  0.40740741  0.55555556       0.001
   0.55555556 -0.55555556 -0.40740741       0.001
   0.51851852 -0.51851852 -0.37037037       0.001
   0.48148148 -0.48148148 -0.33333333       0.001
   0.44444444 -0.44444444 -0.29629630       0.001
   0.40740741 -0.40740741 -0.25925926       0.001
   0.37037037 -0.37037037 -0.22222222       0.001
   0.33333333 -0.33333333 -0.18518519       0.001
   0.29629630 -0.29629630 -0.14814815       0.001
   0.25925926 -0.25925926 -0.11111111       0.001
   0.22222222 -0.22222222 -0.07407407       0.001
   0.18518519 -0.18518519 -0.03703704       0.001
   0.14814815 -0.14814815  0.00000000       0.001
   0.00000000  0.00000000  0.22222222       0.000
  -0.03703704  0.03703704  0.25925926       0.001
  -0.07407407  0.07407407  0.29629630       0.001
  -0.11111111  0.11111111  0.33333333       0.001
  -0.14814815  0.14814815  0.37037037       0.001
  -0.18518519  0.18518519  0.40740741       0.001
  -0.22222222  0.22222222  0.44444444       0.001
  -0.25925926  0.25925926  0.48148148       0.001
  -0.29629630  0.29629630  0.51851852       0.001
  -0.33333333  0.33333333  0.55555556       0.001
  -0.37037037  0.37037037  0.59259259       0.001
   0.59259259 -0.59259259 -0.37037037       0.001
   0.55555556 -0.55555556 -0.33333333       0.001
   0.51851852 -0.51851852 -0.29629630       0.001
   0.48148148 -0.48148148 -0.25925926       0.001
   0.44444444 -0.44444444 -0.22222222       0.001
   0.40740741 -0.40740741 -0.18518519       0.001
   0.37037037 -0.37037037 -0.14814815       0.001
   0.33333333 -0.33333333 -0.11111111       0.001
   0.29629630 -0.29629630 -0.07407407       0.001
   0.25925926 -0.25925926 -0.03703704       0.001
   0.22222222 -0.22222222  0.00000000       0.001
   0.00000000  0.00000000  0.29629630       0.000
  -0.03703704  0.03703704  0.33333333       0.001
  -0.07407407  0.07407407  0.37037037       0.001
  -0.11111111  0.11111111  0.40740741       0.001
  -0.14814815  0.14814815  0.44444444       0.001
  -0.18518519  0.18518519  0.48148148       0.001
  -0.22222222  0.22222222  0.51851852       0.001
  -0.25925926  0.25925926  0.55555556       0.001
  -0.29629630  0.29629630  0.59259259       0.001
  -0.33333333  0.33333333  0.62962963       0.001
   0.62962963 -0.62962963 -0.33333333       0.001
   0.59259259 -0.59259259 -0.29629630       0.001
   0.55555556 -0.55555556 -0.25925926       0.001
   0.51851852 -0.51851852 -0.22222222       0.001
   0.48148148 -0.48148148 -0.18518519       0.001
   0.44444444 -0.44444444 -0.14814815       0.001
   0.40740741 -0.40740741 -0.11111111       0.001
   0.37037037 -0.37037037 -0.07407407       0.001
   0.33333333 -0.33333333 -0.03703704       0.001
   0.29629630 -0.29629630  0.00000000       0.001
   0.00000000  0.00000000  0.37037037       0.000
  -0.03703704  0.03703704  0.40740741       0.001
  -0.07407407  0.07407407  0.44444444       0.001
  -0.11111111  0.11111111  0.48148148       0.001
  -0.14814815  0.14814815  0.51851852       0.001
  -0.18518519  0.18518519  0.55555556       0.001
  -0.22222222  0.22222222  0.59259259       0.001
  -0.25925926  0.25925926  0.62962963       0.001
  -0.29629630  0.29629630  0.66666667       0.001
   0.66666667 -0.66666667 -0.29629630       0.001
   0.62962963 -0.62962963 -0.25925926       0.001
   0.59259259 -0.59259259 -0.22222222       0.001
   0.55555556 -0.55555556 -0.18518519       0.001
   0.51851852 -0.51851852 -0.14814815       0.001
   0.48148148 -0.48148148 -0.11111111       0.001
   0.44444444 -0.44444444 -0.07407407       0.001
   0.40740741 -0.40740741 -0.03703704       0.001
   0.37037037 -0.37037037  0.00000000       0.001
   0.00000000  0.00000000  0.44444444       0.000
  -0.03703704  0.03703704  0.48148148       0.001
  -0.07407407  0.07407407  0.51851852       0.001
  -0.11111111  0.11111111  0.55555556       0.001
  -0.14814815  0.14814815  0.59259259       0.001
  -0.18518519  0.18518519  0.62962963       0.001
  -0.22222222  0.22222222  0.66666667       0.001
  -0.25925926  0.25925926  0.70370370       0.001
   0.70370370 -0.70370370 -0.25925926       0.001
   0.66666667 -0.66666667 -0.22222222       0.001
   0.62962963 -0.62962963 -0.18518519       0.001
   0.59259259 -0.59259259 -0.14814815       0.001
   0.55555556 -0.55555556 -0.11111111       0.001
   0.51851852 -0.51851852 -0.07407407       0.001
   0.48148148 -0.48148148 -0.03703704       0.001
   0.44444444 -0.44444444  0.00000000       0.001
   0.00000000  0.00000000  0.51851852       0.000
[...]
      8      14.9810      0.00000

 k-point   527 :      -0.2593    0.3704    0.1481
  band No.  band energies     occupation 
      1      -2.2605      2.00000
      2       0.2257      2.00000
      3       2.4396      2.00000
      4       4.1636      2.00000
      5      11.1066      0.00000
      6      12.3668      0.00000
      7      13.4588      0.00000
      8      15.6734      0.00000

 k-point   528 :      -0.2222    0.3704    0.1481
  band No.  band energies     occupation 
      1      -2.6014      2.00000
      2       0.5596      2.00000
      3       2.5596      2.00000
      4       4.3684      2.00000
      5      11.2944      0.00000
      6      12.0580      0.00000
      7      13.0104      0.00000
      8      16.2542      0.00000

 k-point   529 :      -0.4444    0.4074    0.1481
  band No.  band energies     occupation 
      1      -2.4768      2.00000
      2       0.4849      2.00000
      3       3.1327      2.00000
      4       3.7979      2.00000
      5      10.1568      0.00000
      6      10.5826      0.00000
      7      14.3053      0.00000
      8      17.6121      0.00000

 k-point   530 :      -0.4074    0.4074    0.1481
  band No.  band energies     occupation 
      1      -2.1224      2.00000
      2       0.1424      2.00000
      3       2.8999      2.00000
      4       3.6384      2.00000
      5      10.3710      0.00000
      6      11.0767      0.00000
      7      14.1179      0.00000
      8      17.0553      0.00000

 k-point   531 :      -0.3704    0.4074    0.1481
  band No.  band energies     occupation 
      1      -1.7993      2.00000
      2      -0.1649      2.00000
      3       2.6589      2.00000
      4       3.5994      2.00000
      5      10.4726      0.00000
      6      11.7715      0.00000
      7      13.9666      0.00000
      8      16.1458      0.00000

 k-point   532 :      -0.3333    0.4074    0.1481
  band No.  band energies     occupation 
      1      -1.6044      2.00000
      2      -0.3441      2.00000
      3       2.4571      2.00000
      4       3.6506      2.00000
      5      10.5906      0.00000
      6      12.4608      0.00000
      7      13.9011      0.00000
      8      15.2625      0.00000

 k-point   533 :      -0.2963    0.4074    0.1481
  band No.  band energies     occupation 
      1      -1.6677      2.00000
      2      -0.2744      2.00000
      3       2.3326      2.00000
      4       3.7696      2.00000
      5      10.7384      0.00000
      6      12.9039      0.00000
      7      14.0201      0.00000
      8      14.5557      0.00000

 k-point   534 :      -0.2593    0.4074    0.1481
  band No.  band energies     occupation 
      1      -1.9294      2.00000
      2      -0.0340      2.00000
      3       2.3173      2.00000
      4       3.9436      2.00000
      5      10.9143      0.00000
      6      12.8458      0.00000
      7      13.7112      0.00000
      8      14.8900      0.00000

 k-point   535 :      -0.4074    0.4444    0.1481
  band No.  band energies     occupation 
      1      -1.9057      2.00000
      2      -0.1019      2.00000
      3       3.0979      2.00000
      4       3.4814      2.00000
      5      10.1215      0.00000
      6      10.3713      0.00000
      7      14.9780      0.00000
      8      17.2443      0.00000

 k-point   536 :      -0.3704    0.4444    0.1481
  band No.  band energies     occupation 
      1      -1.5638      2.00000
      2      -0.4017      2.00000
      3       2.8584      2.00000
      4       3.3889      2.00000
      5      10.3065      0.00000
      6      10.9677      0.00000
      7      14.7935      0.00000
      8      16.2941      0.00000

 k-point   537 :      -0.3333    0.4444    0.1481
  band No.  band energies     occupation 
      1      -1.3270      2.00000
      2      -0.5991      2.00000
      3       2.5880      2.00000
      4       3.4483      2.00000
      5      10.4212      0.00000
      6      11.7239      0.00000
      7      14.6359      0.00000
      8      15.3778      0.00000

 k-point   538 :      -0.2963    0.4444    0.1481
  band No.  band energies     occupation 
      1      -1.3969      2.00000
      2      -0.5125      2.00000
      3       2.3961      2.00000
      4       3.5815      2.00000
      5      10.5647      0.00000
      6      12.4718      0.00000
      7      14.4967      0.00000
      8      14.5787      0.00000

 k-point   539 :      -0.3704    0.4815    0.1481
  band No.  band energies     occupation 
      1      -1.3114      2.00000
      2      -0.7055      2.00000
      3       3.1392      2.00000
      4       3.2642      2.00000
      5      10.1435      0.00000
      6      10.2258      0.00000
      7      15.7001      0.00000
      8      16.4638      0.00000

 k-point   540 :      -0.3333    0.4815    0.1481
  band No.  band energies     occupation 
      1      -1.0874      2.00000
      2      -0.8734      2.00000
      3       2.8509      2.00000
      4       3.2989      2.00000
      5      10.2849      0.00000
      6      10.9311      0.00000
      7      15.4887      0.00000
      8      15.5584      0.00000

 k-point   541 :      -0.4444    0.3704    0.1852
  band No.  band energies     occupation 
      1      -2.8237      2.00000
      2       0.8158      2.00000
      3       2.8717      2.00000
      4       4.2597      2.00000
      5      11.1250      0.00000
      6      11.5084      0.00000
      7      12.8516      0.00000
      8      16.6623      0.00000

 k-point   542 :      -0.4074    0.3704    0.1852
  band No.  band energies     occupation 
      1      -2.4704      2.00000
      2       0.4526      2.00000
      3       2.6887      2.00000
      4       4.0535      2.00000
      5      11.3121      0.00000
      6      11.8056      0.00000
      7      12.8878      0.00000
      8      16.5734      0.00000

 k-point   543 :      -0.3704    0.3704    0.1852
  band No.  band energies     occupation 
      1      -2.1451      2.00000
      2       0.1056      2.00000
      3       2.5853      2.00000
      4       3.9052      2.00000
      5      11.3393      0.00000
      6      12.0087      0.00000
      7      13.2822      0.00000
      8      15.8404      0.00000

 k-point   544 :      -0.3333    0.3704    0.1852
  band No.  band energies     occupation 
      1      -1.9255      2.00000
      2      -0.1300      2.00000
      3       2.5401      2.00000
      4       3.8275      2.00000
      5      11.3504      0.00000
      6      12.0381      0.00000
      7      13.8924      0.00000
      8      15.0744      0.00000

 k-point   545 :      -0.4074    0.4074    0.1852
  band No.  band energies     occupation 
      1      -2.3099      2.00000
      2       0.3455      2.00000
      3       2.7917      2.00000
      4       3.7611      2.00000
      5      11.0352      0.00000
      6      11.3386      0.00000
      7      13.3356      0.00000
      8      16.8442      0.00000

 k-point   546 :      -0.3704    0.4074    0.1852
  band No.  band energies     occupation 
      1      -1.9682      2.00000
      2       0.0272      2.00000
      3       2.6367      2.00000
      4       3.5832      2.00000
      5      11.2238      0.00000
      6      11.8359      0.00000
      7      13.2437      0.00000
      8      15.9725      0.00000

 k-point   547 :      -0.3333    0.4074    0.1852
  band No.  band energies     occupation 
      1      -1.6977      2.00000
      2      -0.2305      2.00000
      3       2.5222      2.00000
      4       3.5038      2.00000
      5      11.3080      0.00000
      6      12.2965      0.00000
      7      13.3822      0.00000
      8      15.1009      0.00000

 k-point   548 :      -0.2963    0.4074    0.1852
  band No.  band energies     occupation 
      1      -1.6273      2.00000
      2      -0.2956      2.00000
      3       2.4511      2.00000
      4       3.5239      2.00000
      5      11.4053      0.00000
      6      12.4075      0.00000
      7      13.7362      0.00000
      8      14.4911      0.00000

 k-point   549 :      -0.2593    0.4074    0.1852
  band No.  band energies     occupation 
      1      -1.8109      2.00000
      2      -0.1173      2.00000
      3       2.4402      2.00000
      4       3.6323      2.00000
      5      11.5152      0.00000
      6      12.2960      0.00000
      7      13.3527      0.00000
      8      14.9734      0.00000

 k-point   550 :      -0.2222    0.4074    0.1852
  band No.  band energies     occupation 
      1      -2.1233      2.00000
      2       0.1678      2.00000
      3       2.5127      2.00000
      4       3.8138      2.00000
      5      11.6117      0.00000
      6      11.9611      0.00000
      7      12.9736      0.00000
      8      15.8180      0.00000

 k-point   551 :      -0.3704    0.4444    0.1852
  band No.  band energies     occupation 
      1      -1.7732      2.00000
      2      -0.1539      2.00000
      3       2.7912      2.00000
      4       3.3594      2.00000
      5      10.9942      0.00000
      6      11.1814      0.00000
      7      13.9367      0.00000
      8      16.1226      0.00000

 k-point   552 :      -0.3333    0.4444    0.1852
  band No.  band energies     occupation 
      1      -1.4631      2.00000
      2      -0.4220      2.00000
      3       2.6539      2.00000
      4       3.2374      2.00000
      5      11.1652      0.00000
      6      11.8074      0.00000
      7      13.8019      0.00000
      8      15.2051      0.00000

 k-point   553 :      -0.2963    0.4444    0.1852
  band No.  band energies     occupation 
      1      -1.3319      2.00000
      2      -0.5308      2.00000
      3       2.5061      2.00000
      4       3.2746      2.00000
      5      11.2777      0.00000
      6      12.4408      0.00000
      7      13.7734      0.00000
      8      14.3863      0.00000

 k-point   554 :      -0.2593    0.4444    0.1852
  band No.  band energies     occupation 
      1      -1.5048      2.00000
      2      -0.3674      2.00000
      3       2.4199      2.00000
      4       3.4166      2.00000
      5      11.4068      0.00000
      6      12.6597      0.00000
      7      13.6057      0.00000
      8      14.2600      0.00000

 k-point   555 :      -0.3333    0.4815    0.1852
  band No.  band energies     occupation 
      1      -1.2255      2.00000
      2      -0.6809      2.00000
      3       2.8793      2.00000
      4       3.0660      2.00000
      5      11.0046      0.00000
      6      11.0675      0.00000
      7      14.6144      0.00000
      8      15.3497      0.00000

 k-point   556 :      -0.2963    0.4815    0.1852
  band No.  band energies     occupation 
      1      -1.0783      2.00000
      2      -0.7865      2.00000
      3       2.6881      2.00000
      4       3.0911      2.00000
      5      11.1451      0.00000
      6      11.7918      0.00000
      7      14.4536      0.00000
      8      14.4854      0.00000

 k-point   557 :      -0.3333    0.4444    0.2222
  band No.  band energies     occupation 
      1      -1.6348      2.00000
      2      -0.2437      2.00000
      3       2.5573      2.00000
      4       3.3372      2.00000
      5      11.8008      0.00000
      6      11.9012      0.00000
      7      13.2049      0.00000
      8      15.0671      0.00000

 k-point   558 :      -0.2963    0.4444    0.2222
  band No.  band energies     occupation 
      1      -1.3801      2.00000
      2      -0.4677      2.00000
      3       2.5318      2.00000
      4       3.1978      2.00000
      5      11.8267      0.00000
      6      12.3115      0.00000
      7      13.3969      0.00000
      8      14.2841      0.00000

 k-point   559 :      -0.2963    0.4815    0.2222
  band No.  band energies     occupation 
      1      -1.1500      2.00000
      2      -0.6831      2.00000
      3       2.7047      2.00000
      4       2.9640      2.00000
      5      11.8575      0.00000
      6      11.8731      0.00000
      7      13.6946      0.00000
      8      14.3388      0.00000

 k-point   560 :      -0.2593    0.4815    0.2222
  band No.  band energies     occupation 
      1      -1.0984      2.00000
      2      -0.7193      2.00000
      3       2.6376      2.00000
      4       2.9732      2.00000
      5      11.9188      0.00000
      6      12.3627      0.00000
      7      13.6159      0.00000
      8      13.8134      0.00000


--------------------------------------------------------------------------------------------------------


 soft charge-density along one line, spin component           1
         0         1         2         3         4         5         6         7         8         9
 total charge-density along one line
 
 pseudopotential strength for first ion, spin component:           1
 18.006  25.118  -0.000  -0.000  -0.000  -0.000  -0.000  -0.000
 25.118  35.043  -0.000  -0.000  -0.000  -0.000  -0.000  -0.000
 -0.000  -0.000   4.137   0.000   0.000   7.708   0.000   0.000
 -0.000  -0.000   0.000   4.137   0.000   0.000   7.708   0.000
 -0.000  -0.000   0.000   0.000   4.137   0.000   0.000   7.708
 -0.000  -0.000   7.708   0.000   0.000  14.372   0.000   0.000
 -0.000  -0.000   0.000   7.708   0.000   0.000  14.372   0.000
 -0.000  -0.000   0.000   0.000   7.708   0.000   0.000  14.372
 total augmentation occupancy for first ion, spin component:           1
 10.946  -5.161   0.000   0.000   0.000   0.000   0.000   0.000
 -5.161   2.501   0.000   0.000   0.000   0.000  -0.000  -0.000
  0.000   0.000   4.876   0.000   0.000  -1.366   0.000  -0.000
  0.000   0.000   0.000   4.876   0.000   0.000  -1.366   0.000
  0.000   0.000   0.000  -0.000   4.876  -0.000  -0.000  -1.366
  0.000   0.000  -1.366   0.000   0.000   0.391   0.000   0.000
  0.000   0.000   0.000  -1.366   0.000   0.000   0.391  -0.000
  0.000   0.000  -0.000  -0.000  -1.366   0.000   0.000   0.391


------------------------ aborting loop because EDIFF is reached ----------------------------------------


 


 total charge     
 
# of ion       s       p       d       tot
------------------------------------------
    1        0.757   1.096   0.000   1.854
    2        0.757   1.096   0.000   1.854
--------------------------------------------------
tot          1.515   2.193   0.000   3.708
 
    CHARGE:  cpu time    0.0674: real time    0.0676
    FORLOC:  cpu time    0.0005: real time    0.0005
    FORNL :  cpu time    0.1376: real time    0.1378
    STRESS:  cpu time   10.0722: real time   10.0747
    FORCOR:  cpu time    0.0470: real time    0.0470
    FORHAR:  cpu time    0.0025: real time    0.0026
    MIXING:  cpu time    0.0024: real time    0.0024
    OFIELD:  cpu time    0.0000: real time    0.0000

  FORCE on cell =-STRESS in cart. coord.  units (eV):
  Direction    XX          YY          ZZ          XY          YZ          ZX
  --------------------------------------------------------------------------------------
  Alpha Z     3.98954     3.98954     3.98954
  Ewald     -80.64331   -80.64331   -80.64331     0.00000     0.00000     0.00000
  Hartree     4.35820     4.35820     4.35820     0.00000     0.00000     0.00000
  E(xc)     -25.45390   -25.68622   -25.50323     0.09445     0.01211     0.04276
  Local     -26.89407   -26.89407   -26.89407     0.00000     0.00000     0.00000
  n-local    80.64932    82.28070    76.31074     2.65123    -1.59054     0.67050
  augment   -10.81387   -10.81387   -10.81387    -0.00000    -0.00000    -0.00000
  Kinetic    63.47196    58.84132    60.64254     3.51253    -0.46899     1.17970
  Fock        0.00000     0.00000     0.00000     0.00000     0.00000     0.00000
  -------------------------------------------------------------------------------------
  Total       5.18090     5.18090     5.18090    -0.00000    -0.00000     0.00000
  in kB     245.93682   245.93682   245.93682    -0.00000    -0.00000     0.00000
  external pressure =      245.94 kB  Pullay stress =        0.00 kB


 VOLUME and BASIS-vectors are now :
 -----------------------------------------------------------------------------
  energy-cutoff  :      800.00
  volume of cell :       33.75
      direct lattice vectors                 reciprocal lattice vectors
     0.000000000  2.565000000  2.565000000    -0.194931774  0.194931774  0.194931774
     2.565000000  0.000000000  2.565000000     0.194931774 -0.194931774  0.194931774
     2.565000000  2.565000000  0.000000000     0.194931774  0.194931774 -0.194931774

  length of vectors
     3.627457787  3.627457787  3.627457787     0.337631736  0.337631736  0.337631736


 FORCES acting on ions
    electron-ion (+dipol)            ewald-force                    non-local-force                 convergence-correction
 -----------------------------------------------------------------------------------------------
   -.337E-08 -.337E-08 -.183E-08   -.179E-13 -.197E-13 -.208E-13   -.104E-16 0.729E-16 0.833E-16   -.218E-11 -.218E-11 -.218E-11
   0.337E-08 0.337E-08 0.183E-08   0.180E-13 0.190E-13 0.204E-13   0.000E+00 -.763E-16 -.101E-15   0.218E-11 0.218E-11 0.218E-11
 -----------------------------------------------------------------------------------------------
   -.499E-13 0.117E-12 0.770E-13   0.786E-16 -.691E-15 -.493E-15   -.104E-16 -.347E-17 -.173E-16   -.157E-14 -.239E-14 -.316E-14
 
 
 POSITION                                       TOTAL-FORCE (eV/Angst)
 -----------------------------------------------------------------------------------
      4.48875      4.48875      4.48875         0.000000      0.000000      0.000000
      0.64125      0.64125      0.64125        -0.000000     -0.000000     -0.000000
 -----------------------------------------------------------------------------------
    total drift:                               -0.000000      0.000000      0.000000


--------------------------------------------------------------------------------------------------------



  FREE ENERGIE OF THE ION-ELECTRON SYSTEM (eV)
  ---------------------------------------------------
  free  energy   TOTEN  =       -17.12110748 eV

  energy  without entropy=      -17.12110748  energy(sigma->0) =      -17.12110748
 


--------------------------------------------------------------------------------------------------------


    POTLOK:  cpu time    0.3870: real time    0.3872


--------------------------------------------------------------------------------------------------------


     LOOP+:  cpu time   72.1149: real time   72.2084
    4ORBIT:  cpu time    0.0000: real time    0.0000
 


 total charge     
 
# of ion       s       p       d       tot
------------------------------------------
    1        0.757   1.096   0.000   1.854
    2        0.757   1.096   0.000   1.854
--------------------------------------------------
tot          1.515   2.193   0.000   3.708
 
 BZINTS: Fermi energy:    8.045285;    8.000000 electrons
         Band energy: 0.141650E+02;  BLOECHL correction:   -0.000000

 total amount of memory used by VASP MPI-rank0    47609. kBytes
=======================================================================

   base      :      30000. kBytes
   nonl-proj :       6313. kBytes
   fftplans  :       3140. kBytes
   grid      :       1559. kBytes
   one-center:          3. kBytes
   wavefun   :       6594. kBytes
 
  
  
 General timing and accounting informations for this job:
 ========================================================
  
                  Total CPU time used (sec):       74.668
                            User time (sec):       74.422
                          System time (sec):        0.246
                         Elapsed time (sec):       75.070
  
                   Maximum memory used (kb):      139008.
                   Average memory used (kb):           0.
  
                          Minor page faults:        52422
                          Major page faults:            5
                 Voluntary context switches:         1452
