 vasp.6.1.2 22Jul20 (build Mar 11 2021 17:42:27) complex                        
  
 executed on             LinuxIFC date 2021.03.11  18:21:46
 running on   40 total cores
 distrk:  each k-point on   20 cores,    2 groups
 distr:  one band on NCORE=  10 cores,    2 groups


--------------------------------------------------------------------------------------------------------


 INCAR:
 POTCAR:    PAW_PBE Si 05Jan2001                  
 POTCAR:    PAW_PBE Si 05Jan2001                  
   VRHFIN =Si: s2p2                                                                                 
   LEXCH  = PE                                                                                      
   EATOM  =   103.0669 eV,    7.5752 Ry                                                             
                                                                                                    
   TITEL  = PAW_PBE Si 05Jan2001                                                                    
   LULTRA =        F    use ultrasoft PP ?                                                          
   IUNSCR =        1    unscreen: 0-lin 1-nonlin 2-no                                               
   RPACOR =    1.500    partial core radius                                                         
   POMASS =   28.085; ZVAL   =    4.000    mass and valenz                                          
   RCORE  =    1.900    outmost cutoff radius                                                       
   RWIGS  =    2.480; RWIGS  =    1.312    wigner-seitz radius (au A)                               
   ENMAX  =  245.345; ENMIN  =  184.009 eV                                                          
   ICORE  =        2    local potential                                                             
   LCOR   =        T    correct aug charges                                                         
   LPAW   =        T    paw PP                                                                      
   EAUG   =  322.069                                                                                
   DEXC   =    0.000                                                                                
   RMAX   =    1.950    core radius for proj-oper                                                   
   RAUG   =    1.300    factor for augmentation sphere                                              
   RDEP   =    1.993    radius for radial grids                                                     
   RDEPT  =    1.837    core radius for aug-charge                                                  
                                                                                                    
   Atomic configuration                                                                             
    6 entries                                                                                       
     n  l   j            E        occ.                                                              
     1  0  0.50     -1785.8828   2.0000                                                             
     2  0  0.50      -139.4969   2.0000                                                             
     2  1  1.50       -95.5546   6.0000                                                             
     3  0  0.50       -10.8127   2.0000                                                             
     3  1  0.50        -4.0811   2.0000                                                             
     3  2  1.50        -4.0817   0.0000                                                             
   Description                                                                                      
     l       E           TYP  RCUT    TYP  RCUT                                                     
     0    -10.8127223     23  1.900                                                                 
     0     -7.6451159     23  1.900                                                                 
     1     -4.0811372     23  1.900                                                                 
     1      2.4879257     23  1.900                                                                 
     2     -4.0817478      7  1.900                                                                 
  local pseudopotential read in
  partial core-charges read in
  partial kinetic energy density read in
  atomic valenz-charges read in
  non local Contribution for L=           0  read in
    real space projection operators read in
  non local Contribution for L=           0  read in
    real space projection operators read in
  non local Contribution for L=           1  read in
    real space projection operators read in
  non local Contribution for L=           1  read in
    real space projection operators read in
    PAW grid and wavefunctions read in
 
   number of l-projection  operators is LMAX  =           4
   number of lm-projection operators is LMMAX =           8
 
  PAW_PBE Si 05Jan2001                  :
 energy of atom  1       EATOM= -103.0669
 kinetic energy error for atom=    0.0002 (will be added to EATOM!!)
 
 
 POSCAR: Unknown
  positions in direct lattice
  No initial velocities read in

 METAGGA = R2SCA    LMAXTAU =  6    LMIXTAU =  T

 exchange correlation table for  LEXCH =        8
   RHO(1)=    0.500       N(1)  =     2000
   RHO(2)=  100.500       N(2)  =     4000
 


--------------------------------------------------------------------------------------------------------


 ion  position               nearest neighbor table
   1  0.875  0.875  0.875-   2 2.37   2 2.37   2 2.37   2 2.37
   2  0.125  0.125  0.125-   1 2.37   1 2.37   1 2.37   1 2.37
 
  LATTYP: Found a face centered cubic cell.
 ALAT       =     5.4801310054
  
  Lattice vectors:
  
 A1 = (   0.0000000000,   2.7400655027,   2.7400655027)
 A2 = (   2.7400655027,   0.0000000000,   2.7400655027)
 A3 = (   2.7400655027,   2.7400655027,   0.0000000000)


Analysis of symmetry for initial positions (statically):
=====================================================================
 Subroutine PRICEL returns:
 Original cell was already a primitive cell.
 

 Routine SETGRP: Setting up the symmetry group for a 
 face centered cubic supercell.


 Subroutine GETGRP returns: Found 48 space group operations
 (whereof 12 operations were pure point group operations)
 out of a pool of 48 trial point group operations.


The static configuration has the point symmetry D_3d.
 The point group associated with its full space group is O_h .


Analysis of symmetry for dynamics (positions and initial velocities):
=====================================================================
 Subroutine PRICEL returns:
 Original cell was already a primitive cell.
 

 Routine SETGRP: Setting up the symmetry group for a 
 face centered cubic supercell.


 Subroutine GETGRP returns: Found 48 space group operations
 (whereof 12 operations were pure point group operations)
 out of a pool of 48 trial point group operations.


The dynamic configuration has the point symmetry D_3d.
 The point group associated with its full space group is O_h .


 Subroutine INISYM returns: Found 48 space group operations
 (whereof 12 operations are pure point group operations),
 and found     1 'primitive' translations


----------------------------------------------------------------------------------------

                                     Primitive cell                                     

  volume of cell :      41.1446

  direct lattice vectors                    reciprocal lattice vectors
     0.000000000  2.740065503  2.740065503    -0.182477390  0.182477390  0.182477390
     2.740065503  0.000000000  2.740065503     0.182477390 -0.182477390  0.182477390
     2.740065503  2.740065503  0.000000000     0.182477390  0.182477390 -0.182477390

  length of vectors
     3.875037796  3.875037796  3.875037796     0.316060110  0.316060110  0.316060110

  position of ions in fractional coordinates (direct lattice)
     0.875000000  0.875000000  0.875000000
     0.125000000  0.125000000  0.125000000

  ion indices of the primitive-cell ions
   primitive index   ion index
                 1           1
                 2           2

----------------------------------------------------------------------------------------

 
 

Automatic generation of k-mesh.
 generate k-points for:   25   25   25
Space group operators:
 irot       det(A)        alpha          n_x          n_y          n_z        tau_x        tau_y        tau_z
    1     1.000000     0.000000     1.000000     0.000000     0.000000     0.000000     0.000000     0.000000
    2    -1.000000     0.000000     1.000000     0.000000     0.000000     0.000000     0.000000     0.000000
    3     1.000000   120.000000    -0.577350    -0.577350    -0.577350     0.000000     0.000000     0.000000
    4    -1.000000   120.000000    -0.577350    -0.577350    -0.577350     0.000000     0.000000     0.000000
    5     1.000000   120.000000     0.577350     0.577350     0.577350     0.000000     0.000000     0.000000
    6    -1.000000   120.000000     0.577350     0.577350     0.577350     0.000000     0.000000     0.000000
    7     1.000000   180.000000     0.000000    -0.707107     0.707107     0.000000     0.000000     0.000000
    8    -1.000000   180.000000     0.000000    -0.707107     0.707107     0.000000     0.000000     0.000000
    9     1.000000   180.000000     0.707107    -0.707107     0.000000     0.000000     0.000000     0.000000
   10    -1.000000   180.000000     0.707107    -0.707107     0.000000     0.000000     0.000000     0.000000
   11     1.000000   180.000000     0.707107     0.000000    -0.707107     0.000000     0.000000     0.000000
   12    -1.000000   180.000000     0.707107     0.000000    -0.707107     0.000000     0.000000     0.000000
   13     1.000000    90.000000     0.000000     0.000000    -1.000000    -0.500000     0.000000     0.000000
   14    -1.000000    90.000000     0.000000     0.000000    -1.000000    -0.500000     0.000000     0.000000
   15     1.000000   180.000000     0.000000     0.707107     0.707107    -0.500000     0.000000     0.000000
   16    -1.000000   180.000000     0.000000     0.707107     0.707107    -0.500000     0.000000     0.000000
   17     1.000000    90.000000     0.000000     1.000000     0.000000    -0.500000     0.000000     0.000000
   18    -1.000000    90.000000     0.000000     1.000000     0.000000    -0.500000     0.000000     0.000000
   19     1.000000   180.000000     0.000000     0.000000     1.000000     0.000000     0.000000    -0.500000
   20    -1.000000   180.000000     0.000000     0.000000     1.000000     0.000000     0.000000    -0.500000
   21     1.000000   120.000000    -0.577350     0.577350     0.577350     0.000000     0.000000    -0.500000
   22    -1.000000   120.000000    -0.577350     0.577350     0.577350     0.000000     0.000000    -0.500000
   23     1.000000   120.000000    -0.577350     0.577350    -0.577350     0.000000     0.000000    -0.500000
   24    -1.000000   120.000000    -0.577350     0.577350    -0.577350     0.000000     0.000000    -0.500000
   25     1.000000    90.000000     0.000000     0.000000     1.000000     0.000000    -0.500000     0.000000
   26    -1.000000    90.000000     0.000000     0.000000     1.000000     0.000000    -0.500000     0.000000
   27     1.000000    90.000000    -1.000000     0.000000     0.000000     0.000000    -0.500000     0.000000
   28    -1.000000    90.000000    -1.000000     0.000000     0.000000     0.000000    -0.500000     0.000000
   29     1.000000   180.000000     0.707107     0.000000     0.707107     0.000000    -0.500000     0.000000
   30    -1.000000   180.000000     0.707107     0.000000     0.707107     0.000000    -0.500000     0.000000
   31     1.000000   120.000000     0.577350    -0.577350     0.577350    -0.500000     0.000000     0.000000
   32    -1.000000   120.000000     0.577350    -0.577350     0.577350    -0.500000     0.000000     0.000000
   33     1.000000   120.000000    -0.577350    -0.577350     0.577350    -0.500000     0.000000     0.000000
   34    -1.000000   120.000000    -0.577350    -0.577350     0.577350    -0.500000     0.000000     0.000000
   35     1.000000   180.000000     1.000000     0.000000     0.000000    -0.500000     0.000000     0.000000
   36    -1.000000   180.000000     1.000000     0.000000     0.000000    -0.500000     0.000000     0.000000
   37     1.000000    90.000000     0.000000    -1.000000     0.000000     0.000000     0.000000    -0.500000
   38    -1.000000    90.000000     0.000000    -1.000000     0.000000     0.000000     0.000000    -0.500000
   39     1.000000   180.000000     0.707107     0.707107     0.000000     0.000000     0.000000    -0.500000
   40    -1.000000   180.000000     0.707107     0.707107     0.000000     0.000000     0.000000    -0.500000
   41     1.000000    90.000000     1.000000     0.000000     0.000000     0.000000     0.000000    -0.500000
   42    -1.000000    90.000000     1.000000     0.000000     0.000000     0.000000     0.000000    -0.500000
   43     1.000000   120.000000     0.577350    -0.577350    -0.577350     0.000000    -0.500000     0.000000
   44    -1.000000   120.000000     0.577350    -0.577350    -0.577350     0.000000    -0.500000     0.000000
   45     1.000000   180.000000     0.000000     1.000000     0.000000     0.000000    -0.500000     0.000000
   46    -1.000000   180.000000     0.000000     1.000000     0.000000     0.000000    -0.500000     0.000000
   47     1.000000   120.000000     0.577350     0.577350    -0.577350     0.000000    -0.500000     0.000000
   48    -1.000000   120.000000     0.577350     0.577350    -0.577350     0.000000    -0.500000     0.000000
 TETIRR: Found   2119 inequivalent tetrahedra from    93750
 
 Subroutine IBZKPT returns following result:
 ===========================================
 
 Found    455 irreducible k-points:
 
 Following reciprocal coordinates:
            Coordinates               Weight
  0.000000  0.000000  0.000000      1.000000
  0.040000  0.000000  0.000000      8.000000
  0.080000  0.000000  0.000000      8.000000
  0.120000  0.000000  0.000000      8.000000
  0.160000  0.000000  0.000000      8.000000
  0.200000  0.000000  0.000000      8.000000
  0.240000  0.000000  0.000000      8.000000
  0.280000  0.000000  0.000000      8.000000
  0.320000  0.000000  0.000000      8.000000
  0.360000  0.000000  0.000000      8.000000
  0.400000  0.000000  0.000000      8.000000
  0.440000  0.000000  0.000000      8.000000
  0.480000  0.000000  0.000000      8.000000
  0.040000  0.040000  0.000000      6.000000
  0.080000  0.040000  0.000000     24.000000
  0.120000  0.040000  0.000000     24.000000
  0.160000  0.040000  0.000000     24.000000
  0.200000  0.040000  0.000000     24.000000
  0.240000  0.040000  0.000000     24.000000
  0.280000  0.040000  0.000000     24.000000
  0.320000  0.040000  0.000000     24.000000
  0.360000  0.040000  0.000000     24.000000
  0.400000  0.040000  0.000000     24.000000
  0.440000  0.040000  0.000000     24.000000
  0.480000  0.040000  0.000000     24.000000
 -0.480000  0.040000  0.000000     24.000000
 -0.440000  0.040000  0.000000     24.000000
 -0.400000  0.040000  0.000000     24.000000
 -0.360000  0.040000  0.000000     24.000000
 -0.320000  0.040000  0.000000     24.000000
 -0.280000  0.040000  0.000000     24.000000
 -0.240000  0.040000  0.000000     24.000000
 -0.200000  0.040000  0.000000     24.000000
 -0.160000  0.040000  0.000000     24.000000
 -0.120000  0.040000  0.000000     24.000000
 -0.080000  0.040000  0.000000     24.000000
 -0.040000  0.040000  0.000000     12.000000
  0.080000  0.080000  0.000000      6.000000
  0.120000  0.080000  0.000000     24.000000
  0.160000  0.080000  0.000000     24.000000
  0.200000  0.080000  0.000000     24.000000
  0.240000  0.080000  0.000000     24.000000
  0.280000  0.080000  0.000000     24.000000
  0.320000  0.080000  0.000000     24.000000
  0.360000  0.080000  0.000000     24.000000
  0.400000  0.080000  0.000000     24.000000
  0.440000  0.080000  0.000000     24.000000
  0.480000  0.080000  0.000000     24.000000
 -0.480000  0.080000  0.000000     24.000000
 -0.440000  0.080000  0.000000     24.000000
 -0.400000  0.080000  0.000000     24.000000
 -0.360000  0.080000  0.000000     24.000000
 -0.320000  0.080000  0.000000     24.000000
 -0.280000  0.080000  0.000000     24.000000
 -0.240000  0.080000  0.000000     24.000000
 -0.200000  0.080000  0.000000     24.000000
 -0.160000  0.080000  0.000000     24.000000
 -0.120000  0.080000  0.000000     24.000000
 -0.080000  0.080000  0.000000     12.000000
  0.120000  0.120000  0.000000      6.000000
  0.160000  0.120000  0.000000     24.000000
  0.200000  0.120000  0.000000     24.000000
  0.240000  0.120000  0.000000     24.000000
  0.280000  0.120000  0.000000     24.000000
  0.320000  0.120000  0.000000     24.000000
  0.360000  0.120000  0.000000     24.000000
  0.400000  0.120000  0.000000     24.000000
  0.440000  0.120000  0.000000     24.000000
  0.480000  0.120000  0.000000     24.000000
 -0.480000  0.120000  0.000000     24.000000
 -0.440000  0.120000  0.000000     24.000000
 -0.400000  0.120000  0.000000     24.000000
 -0.360000  0.120000  0.000000     24.000000
 -0.320000  0.120000  0.000000     24.000000
 -0.280000  0.120000  0.000000     24.000000
 -0.240000  0.120000  0.000000     24.000000
 -0.200000  0.120000  0.000000     24.000000
 -0.160000  0.120000  0.000000     24.000000
 -0.120000  0.120000  0.000000     12.000000
  0.160000  0.160000  0.000000      6.000000
  0.200000  0.160000  0.000000     24.000000
  0.240000  0.160000  0.000000     24.000000
  0.280000  0.160000  0.000000     24.000000
  0.320000  0.160000  0.000000     24.000000
  0.360000  0.160000  0.000000     24.000000
  0.400000  0.160000  0.000000     24.000000
  0.440000  0.160000  0.000000     24.000000
  0.480000  0.160000  0.000000     24.000000
 -0.480000  0.160000  0.000000     24.000000
 -0.440000  0.160000  0.000000     24.000000
 -0.400000  0.160000  0.000000     24.000000
 -0.360000  0.160000  0.000000     24.000000
 -0.320000  0.160000  0.000000     24.000000
 -0.280000  0.160000  0.000000     24.000000
 -0.240000  0.160000  0.000000     24.000000
 -0.200000  0.160000  0.000000     24.000000
 -0.160000  0.160000  0.000000     12.000000
  0.200000  0.200000  0.000000      6.000000
  0.240000  0.200000  0.000000     24.000000
  0.280000  0.200000  0.000000     24.000000
  0.320000  0.200000  0.000000     24.000000
  0.360000  0.200000  0.000000     24.000000
  0.400000  0.200000  0.000000     24.000000
  0.440000  0.200000  0.000000     24.000000
  0.480000  0.200000  0.000000     24.000000
 -0.480000  0.200000  0.000000     24.000000
 -0.440000  0.200000  0.000000     24.000000
 -0.400000  0.200000  0.000000     24.000000
 -0.360000  0.200000  0.000000     24.000000
 -0.320000  0.200000  0.000000     24.000000
 -0.280000  0.200000  0.000000     24.000000
 -0.240000  0.200000  0.000000     24.000000
 -0.200000  0.200000  0.000000     12.000000
  0.240000  0.240000  0.000000      6.000000
  0.280000  0.240000  0.000000     24.000000
  0.320000  0.240000  0.000000     24.000000
  0.360000  0.240000  0.000000     24.000000
  0.400000  0.240000  0.000000     24.000000
  0.440000  0.240000  0.000000     24.000000
  0.480000  0.240000  0.000000     24.000000
 -0.480000  0.240000  0.000000     24.000000
 -0.440000  0.240000  0.000000     24.000000
 -0.400000  0.240000  0.000000     24.000000
 -0.360000  0.240000  0.000000     24.000000
 -0.320000  0.240000  0.000000     24.000000
 -0.280000  0.240000  0.000000     24.000000
 -0.240000  0.240000  0.000000     12.000000
  0.280000  0.280000  0.000000      6.000000
  0.320000  0.280000  0.000000     24.000000
  0.360000  0.280000  0.000000     24.000000
  0.400000  0.280000  0.000000     24.000000
  0.440000  0.280000  0.000000     24.000000
  0.480000  0.280000  0.000000     24.000000
 -0.480000  0.280000  0.000000     24.000000
 -0.440000  0.280000  0.000000     24.000000
 -0.400000  0.280000  0.000000     24.000000
 -0.360000  0.280000  0.000000     24.000000
 -0.320000  0.280000  0.000000     24.000000
 -0.280000  0.280000  0.000000     12.000000
  0.320000  0.320000  0.000000      6.000000
  0.360000  0.320000  0.000000     24.000000
  0.400000  0.320000  0.000000     24.000000
  0.440000  0.320000  0.000000     24.000000
  0.480000  0.320000  0.000000     24.000000
 -0.480000  0.320000  0.000000     24.000000
 -0.440000  0.320000  0.000000     24.000000
 -0.400000  0.320000  0.000000     24.000000
 -0.360000  0.320000  0.000000     24.000000
 -0.320000  0.320000  0.000000     12.000000
  0.360000  0.360000  0.000000      6.000000
  0.400000  0.360000  0.000000     24.000000
  0.440000  0.360000  0.000000     24.000000
  0.480000  0.360000  0.000000     24.000000
 -0.480000  0.360000  0.000000     24.000000
 -0.440000  0.360000  0.000000     24.000000
 -0.400000  0.360000  0.000000     24.000000
 -0.360000  0.360000  0.000000     12.000000
  0.400000  0.400000  0.000000      6.000000
  0.440000  0.400000  0.000000     24.000000
  0.480000  0.400000  0.000000     24.000000
 -0.480000  0.400000  0.000000     24.000000
 -0.440000  0.400000  0.000000     24.000000
 -0.400000  0.400000  0.000000     12.000000
  0.440000  0.440000  0.000000      6.000000
  0.480000  0.440000  0.000000     24.000000
 -0.480000  0.440000  0.000000     24.000000
 -0.440000  0.440000  0.000000     12.000000
  0.480000  0.480000  0.000000      6.000000
 -0.480000  0.480000  0.000000     12.000000
  0.120000  0.080000  0.040000     24.000000
  0.160000  0.080000  0.040000     48.000000
  0.200000  0.080000  0.040000     48.000000
  0.240000  0.080000  0.040000     48.000000
  0.280000  0.080000  0.040000     48.000000
  0.320000  0.080000  0.040000     48.000000
  0.360000  0.080000  0.040000     48.000000
  0.400000  0.080000  0.040000     48.000000
  0.440000  0.080000  0.040000     48.000000
  0.480000  0.080000  0.040000     48.000000
 -0.480000  0.080000  0.040000     48.000000
  0.160000  0.120000  0.040000     24.000000
  0.200000  0.120000  0.040000     48.000000
  0.240000  0.120000  0.040000     48.000000
  0.280000  0.120000  0.040000     48.000000
  0.320000  0.120000  0.040000     48.000000
  0.360000  0.120000  0.040000     48.000000
  0.400000  0.120000  0.040000     48.000000
  0.440000  0.120000  0.040000     48.000000
  0.480000  0.120000  0.040000     48.000000
 -0.480000  0.120000  0.040000     48.000000
 -0.440000  0.120000  0.040000     48.000000
 -0.400000  0.120000  0.040000     48.000000
 -0.360000  0.120000  0.040000     48.000000
 -0.320000  0.120000  0.040000     48.000000
 -0.280000  0.120000  0.040000     48.000000
 -0.240000  0.120000  0.040000     48.000000
 -0.200000  0.120000  0.040000     48.000000
 -0.160000  0.120000  0.040000     48.000000
 -0.120000  0.120000  0.040000     48.000000
 -0.080000  0.120000  0.040000     24.000000
  0.200000  0.160000  0.040000     24.000000
  0.240000  0.160000  0.040000     48.000000
  0.280000  0.160000  0.040000     48.000000
  0.320000  0.160000  0.040000     48.000000
  0.360000  0.160000  0.040000     48.000000
  0.400000  0.160000  0.040000     48.000000
  0.440000  0.160000  0.040000     48.000000
  0.480000  0.160000  0.040000     48.000000
 -0.480000  0.160000  0.040000     48.000000
 -0.440000  0.160000  0.040000     48.000000
 -0.400000  0.160000  0.040000     48.000000
 -0.360000  0.160000  0.040000     48.000000
 -0.320000  0.160000  0.040000     48.000000
 -0.280000  0.160000  0.040000     48.000000
 -0.240000  0.160000  0.040000     48.000000
 -0.200000  0.160000  0.040000     48.000000
 -0.160000  0.160000  0.040000     48.000000
 -0.120000  0.160000  0.040000     24.000000
  0.240000  0.200000  0.040000     24.000000
  0.280000  0.200000  0.040000     48.000000
  0.320000  0.200000  0.040000     48.000000
  0.360000  0.200000  0.040000     48.000000
  0.400000  0.200000  0.040000     48.000000
  0.440000  0.200000  0.040000     48.000000
  0.480000  0.200000  0.040000     48.000000
 -0.480000  0.200000  0.040000     48.000000
 -0.440000  0.200000  0.040000     48.000000
 -0.400000  0.200000  0.040000     48.000000
 -0.360000  0.200000  0.040000     48.000000
 -0.320000  0.200000  0.040000     48.000000
 -0.280000  0.200000  0.040000     48.000000
 -0.240000  0.200000  0.040000     48.000000
 -0.200000  0.200000  0.040000     48.000000
 -0.160000  0.200000  0.040000     24.000000
  0.280000  0.240000  0.040000     24.000000
  0.320000  0.240000  0.040000     48.000000
  0.360000  0.240000  0.040000     48.000000
  0.400000  0.240000  0.040000     48.000000
  0.440000  0.240000  0.040000     48.000000
  0.480000  0.240000  0.040000     48.000000
 -0.480000  0.240000  0.040000     48.000000
 -0.440000  0.240000  0.040000     48.000000
 -0.400000  0.240000  0.040000     48.000000
 -0.360000  0.240000  0.040000     48.000000
 -0.320000  0.240000  0.040000     48.000000
 -0.280000  0.240000  0.040000     48.000000
 -0.240000  0.240000  0.040000     48.000000
 -0.200000  0.240000  0.040000     24.000000
  0.320000  0.280000  0.040000     24.000000
  0.360000  0.280000  0.040000     48.000000
  0.400000  0.280000  0.040000     48.000000
  0.440000  0.280000  0.040000     48.000000
  0.480000  0.280000  0.040000     48.000000
 -0.480000  0.280000  0.040000     48.000000
 -0.440000  0.280000  0.040000     48.000000
 -0.400000  0.280000  0.040000     48.000000
 -0.360000  0.280000  0.040000     48.000000
 -0.320000  0.280000  0.040000     48.000000
 -0.280000  0.280000  0.040000     48.000000
 -0.240000  0.280000  0.040000     24.000000
  0.360000  0.320000  0.040000     24.000000
  0.400000  0.320000  0.040000     48.000000
  0.440000  0.320000  0.040000     48.000000
  0.480000  0.320000  0.040000     48.000000
 -0.480000  0.320000  0.040000     48.000000
 -0.440000  0.320000  0.040000     48.000000
 -0.400000  0.320000  0.040000     48.000000
 -0.360000  0.320000  0.040000     48.000000
 -0.320000  0.320000  0.040000     48.000000
 -0.280000  0.320000  0.040000     24.000000
  0.400000  0.360000  0.040000     24.000000
  0.440000  0.360000  0.040000     48.000000
  0.480000  0.360000  0.040000     48.000000
 -0.480000  0.360000  0.040000     48.000000
 -0.440000  0.360000  0.040000     48.000000
 -0.400000  0.360000  0.040000     48.000000
 -0.360000  0.360000  0.040000     48.000000
 -0.320000  0.360000  0.040000     24.000000
  0.440000  0.400000  0.040000     24.000000
  0.480000  0.400000  0.040000     48.000000
 -0.480000  0.400000  0.040000     48.000000
 -0.440000  0.400000  0.040000     48.000000
 -0.400000  0.400000  0.040000     48.000000
 -0.360000  0.400000  0.040000     24.000000
  0.480000  0.440000  0.040000     24.000000
 -0.480000  0.440000  0.040000     48.000000
 -0.440000  0.440000  0.040000     48.000000
 -0.400000  0.440000  0.040000     24.000000
 -0.480000  0.480000  0.040000     24.000000
 -0.440000  0.480000  0.040000     24.000000
  0.240000  0.160000  0.080000     24.000000
  0.280000  0.160000  0.080000     48.000000
  0.320000  0.160000  0.080000     48.000000
  0.360000  0.160000  0.080000     48.000000
  0.400000  0.160000  0.080000     48.000000
  0.440000  0.160000  0.080000     48.000000
  0.480000  0.160000  0.080000     48.000000
 -0.480000  0.160000  0.080000     48.000000
 -0.440000  0.160000  0.080000     48.000000
  0.280000  0.200000  0.080000     24.000000
  0.320000  0.200000  0.080000     48.000000
  0.360000  0.200000  0.080000     48.000000
  0.400000  0.200000  0.080000     48.000000
  0.440000  0.200000  0.080000     48.000000
  0.480000  0.200000  0.080000     48.000000
 -0.480000  0.200000  0.080000     48.000000
 -0.440000  0.200000  0.080000     48.000000
 -0.400000  0.200000  0.080000     48.000000
 -0.360000  0.200000  0.080000     48.000000
 -0.320000  0.200000  0.080000     48.000000
 -0.280000  0.200000  0.080000     48.000000
 -0.240000  0.200000  0.080000     48.000000
 -0.200000  0.200000  0.080000     48.000000
 -0.160000  0.200000  0.080000     48.000000
 -0.120000  0.200000  0.080000     24.000000
  0.320000  0.240000  0.080000     24.000000
  0.360000  0.240000  0.080000     48.000000
  0.400000  0.240000  0.080000     48.000000
  0.440000  0.240000  0.080000     48.000000
  0.480000  0.240000  0.080000     48.000000
 -0.480000  0.240000  0.080000     48.000000
 -0.440000  0.240000  0.080000     48.000000
 -0.400000  0.240000  0.080000     48.000000
 -0.360000  0.240000  0.080000     48.000000
 -0.320000  0.240000  0.080000     48.000000
 -0.280000  0.240000  0.080000     48.000000
 -0.240000  0.240000  0.080000     48.000000
 -0.200000  0.240000  0.080000     48.000000
 -0.160000  0.240000  0.080000     24.000000
  0.360000  0.280000  0.080000     24.000000
  0.400000  0.280000  0.080000     48.000000
  0.440000  0.280000  0.080000     48.000000
  0.480000  0.280000  0.080000     48.000000
 -0.480000  0.280000  0.080000     48.000000
 -0.440000  0.280000  0.080000     48.000000
 -0.400000  0.280000  0.080000     48.000000
 -0.360000  0.280000  0.080000     48.000000
 -0.320000  0.280000  0.080000     48.000000
 -0.280000  0.280000  0.080000     48.000000
 -0.240000  0.280000  0.080000     48.000000
 -0.200000  0.280000  0.080000     24.000000
  0.400000  0.320000  0.080000     24.000000
  0.440000  0.320000  0.080000     48.000000
  0.480000  0.320000  0.080000     48.000000
 -0.480000  0.320000  0.080000     48.000000
 -0.440000  0.320000  0.080000     48.000000
 -0.400000  0.320000  0.080000     48.000000
 -0.360000  0.320000  0.080000     48.000000
 -0.320000  0.320000  0.080000     48.000000
 -0.280000  0.320000  0.080000     48.000000
 -0.240000  0.320000  0.080000     24.000000
  0.440000  0.360000  0.080000     24.000000
  0.480000  0.360000  0.080000     48.000000
 -0.480000  0.360000  0.080000     48.000000
 -0.440000  0.360000  0.080000     48.000000
 -0.400000  0.360000  0.080000     48.000000
 -0.360000  0.360000  0.080000     48.000000
 -0.320000  0.360000  0.080000     48.000000
 -0.280000  0.360000  0.080000     24.000000
  0.480000  0.400000  0.080000     24.000000
 -0.480000  0.400000  0.080000     48.000000
 -0.440000  0.400000  0.080000     48.000000
 -0.400000  0.400000  0.080000     48.000000
 -0.360000  0.400000  0.080000     48.000000
 -0.320000  0.400000  0.080000     24.000000
 -0.480000  0.440000  0.080000     24.000000
 -0.440000  0.440000  0.080000     48.000000
 -0.400000  0.440000  0.080000     48.000000
 -0.360000  0.440000  0.080000     24.000000
 -0.440000  0.480000  0.080000     24.000000
 -0.400000  0.480000  0.080000     24.000000
  0.360000  0.240000  0.120000     24.000000
  0.400000  0.240000  0.120000     48.000000
  0.440000  0.240000  0.120000     48.000000
  0.480000  0.240000  0.120000     48.000000
 -0.480000  0.240000  0.120000     48.000000
 -0.440000  0.240000  0.120000     48.000000
 -0.400000  0.240000  0.120000     48.000000
  0.400000  0.280000  0.120000     24.000000
  0.440000  0.280000  0.120000     48.000000
  0.480000  0.280000  0.120000     48.000000
 -0.480000  0.280000  0.120000     48.000000
 -0.440000  0.280000  0.120000     48.000000
 -0.400000  0.280000  0.120000     48.000000
 -0.360000  0.280000  0.120000     48.000000
 -0.320000  0.280000  0.120000     48.000000
 -0.280000  0.280000  0.120000     48.000000
 -0.240000  0.280000  0.120000     48.000000
 -0.200000  0.280000  0.120000     48.000000
 -0.160000  0.280000  0.120000     24.000000
  0.440000  0.320000  0.120000     24.000000
  0.480000  0.320000  0.120000     48.000000
 -0.480000  0.320000  0.120000     48.000000
 -0.440000  0.320000  0.120000     48.000000
 -0.400000  0.320000  0.120000     48.000000
 -0.360000  0.320000  0.120000     48.000000
 -0.320000  0.320000  0.120000     48.000000
 -0.280000  0.320000  0.120000     48.000000
 -0.240000  0.320000  0.120000     48.000000
 -0.200000  0.320000  0.120000     24.000000
  0.480000  0.360000  0.120000     24.000000
 -0.480000  0.360000  0.120000     48.000000
 -0.440000  0.360000  0.120000     48.000000
 -0.400000  0.360000  0.120000     48.000000
 -0.360000  0.360000  0.120000     48.000000
 -0.320000  0.360000  0.120000     48.000000
 -0.280000  0.360000  0.120000     48.000000
 -0.240000  0.360000  0.120000     24.000000
 -0.480000  0.400000  0.120000     24.000000
 -0.440000  0.400000  0.120000     48.000000
 -0.400000  0.400000  0.120000     48.000000
 -0.360000  0.400000  0.120000     48.000000
 -0.320000  0.400000  0.120000     48.000000
 -0.280000  0.400000  0.120000     24.000000
 -0.440000  0.440000  0.120000     24.000000
 -0.400000  0.440000  0.120000     48.000000
 -0.360000  0.440000  0.120000     48.000000
 -0.320000  0.440000  0.120000     24.000000
 -0.400000  0.480000  0.120000     24.000000
 -0.360000  0.480000  0.120000     24.000000
  0.480000  0.320000  0.160000     24.000000
 -0.480000  0.320000  0.160000     48.000000
 -0.440000  0.320000  0.160000     48.000000
 -0.400000  0.320000  0.160000     48.000000
 -0.360000  0.320000  0.160000     48.000000
 -0.480000  0.360000  0.160000     24.000000
 -0.440000  0.360000  0.160000     48.000000
 -0.400000  0.360000  0.160000     48.000000
 -0.360000  0.360000  0.160000     48.000000
 -0.320000  0.360000  0.160000     48.000000
 -0.280000  0.360000  0.160000     48.000000
 -0.240000  0.360000  0.160000     48.000000
 -0.200000  0.360000  0.160000     24.000000
 -0.440000  0.400000  0.160000     24.000000
 -0.400000  0.400000  0.160000     48.000000
 -0.360000  0.400000  0.160000     48.000000
 -0.320000  0.400000  0.160000     48.000000
 -0.280000  0.400000  0.160000     48.000000
 -0.240000  0.400000  0.160000     24.000000
 -0.400000  0.440000  0.160000     24.000000
 -0.360000  0.440000  0.160000     48.000000
 -0.320000  0.440000  0.160000     48.000000
 -0.280000  0.440000  0.160000     24.000000
 -0.360000  0.480000  0.160000     24.000000
 -0.320000  0.480000  0.160000     24.000000
 -0.400000  0.400000  0.200000     24.000000
 -0.360000  0.400000  0.200000     48.000000
 -0.320000  0.400000  0.200000     48.000000
 -0.360000  0.440000  0.200000     24.000000
 -0.320000  0.440000  0.200000     48.000000
 -0.280000  0.440000  0.200000     48.000000
 -0.240000  0.440000  0.200000     24.000000
 -0.320000  0.480000  0.200000     24.000000
 -0.280000  0.480000  0.200000     24.000000
 -0.280000  0.480000  0.240000     24.000000
 
 Following cartesian coordinates:
            Coordinates               Weight
  0.000000  0.000000  0.000000      1.000000
 -0.040000  0.040000  0.040000      8.000000
 -0.080000  0.080000  0.080000      8.000000
 -0.120000  0.120000  0.120000      8.000000
 -0.160000  0.160000  0.160000      8.000000
 -0.200000  0.200000  0.200000      8.000000
 -0.240000  0.240000  0.240000      8.000000
 -0.280000  0.280000  0.280000      8.000000
 -0.320000  0.320000  0.320000      8.000000
 -0.360000  0.360000  0.360000      8.000000
 -0.400000  0.400000  0.400000      8.000000
 -0.440000  0.440000  0.440000      8.000000
 -0.480000  0.480000  0.480000      8.000000
  0.000000  0.000000  0.080000      6.000000
 -0.040000  0.040000  0.120000     24.000000
 -0.080000  0.080000  0.160000     24.000000
 -0.120000  0.120000  0.200000     24.000000
 -0.160000  0.160000  0.240000     24.000000
 -0.200000  0.200000  0.280000     24.000000
 -0.240000  0.240000  0.320000     24.000000
 -0.280000  0.280000  0.360000     24.000000
 -0.320000  0.320000  0.400000     24.000000
 -0.360000  0.360000  0.440000     24.000000
 -0.400000  0.400000  0.480000     24.000000
 -0.440000  0.440000  0.520000     24.000000
  0.520000 -0.520000 -0.440000     24.000000
  0.480000 -0.480000 -0.400000     24.000000
  0.440000 -0.440000 -0.360000     24.000000
  0.400000 -0.400000 -0.320000     24.000000
  0.360000 -0.360000 -0.280000     24.000000
  0.320000 -0.320000 -0.240000     24.000000
  0.280000 -0.280000 -0.200000     24.000000
  0.240000 -0.240000 -0.160000     24.000000
  0.200000 -0.200000 -0.120000     24.000000
  0.160000 -0.160000 -0.080000     24.000000
  0.120000 -0.120000 -0.040000     24.000000
  0.080000 -0.080000  0.000000     12.000000
  0.000000  0.000000  0.160000      6.000000
 -0.040000  0.040000  0.200000     24.000000
 -0.080000  0.080000  0.240000     24.000000
 -0.120000  0.120000  0.280000     24.000000
 -0.160000  0.160000  0.320000     24.000000
 -0.200000  0.200000  0.360000     24.000000
 -0.240000  0.240000  0.400000     24.000000
 -0.280000  0.280000  0.440000     24.000000
 -0.320000  0.320000  0.480000     24.000000
 -0.360000  0.360000  0.520000     24.000000
 -0.400000  0.400000  0.560000     24.000000
  0.560000 -0.560000 -0.400000     24.000000
  0.520000 -0.520000 -0.360000     24.000000
  0.480000 -0.480000 -0.320000     24.000000
  0.440000 -0.440000 -0.280000     24.000000
  0.400000 -0.400000 -0.240000     24.000000
  0.360000 -0.360000 -0.200000     24.000000
  0.320000 -0.320000 -0.160000     24.000000
  0.280000 -0.280000 -0.120000     24.000000
  0.240000 -0.240000 -0.080000     24.000000
  0.200000 -0.200000 -0.040000     24.000000
  0.160000 -0.160000  0.000000     12.000000
  0.000000  0.000000  0.240000      6.000000
 -0.040000  0.040000  0.280000     24.000000
 -0.080000  0.080000  0.320000     24.000000
 -0.120000  0.120000  0.360000     24.000000
 -0.160000  0.160000  0.400000     24.000000
 -0.200000  0.200000  0.440000     24.000000
 -0.240000  0.240000  0.480000     24.000000
 -0.280000  0.280000  0.520000     24.000000
 -0.320000  0.320000  0.560000     24.000000
 -0.360000  0.360000  0.600000     24.000000
  0.600000 -0.600000 -0.360000     24.000000
  0.560000 -0.560000 -0.320000     24.000000
  0.520000 -0.520000 -0.280000     24.000000
  0.480000 -0.480000 -0.240000     24.000000
  0.440000 -0.440000 -0.200000     24.000000
  0.400000 -0.400000 -0.160000     24.000000
  0.360000 -0.360000 -0.120000     24.000000
  0.320000 -0.320000 -0.080000     24.000000
  0.280000 -0.280000 -0.040000     24.000000
  0.240000 -0.240000  0.000000     12.000000
  0.000000  0.000000  0.320000      6.000000
 -0.040000  0.040000  0.360000     24.000000
 -0.080000  0.080000  0.400000     24.000000
 -0.120000  0.120000  0.440000     24.000000
 -0.160000  0.160000  0.480000     24.000000
 -0.200000  0.200000  0.520000     24.000000
 -0.240000  0.240000  0.560000     24.000000
 -0.280000  0.280000  0.600000     24.000000
 -0.320000  0.320000  0.640000     24.000000
  0.640000 -0.640000 -0.320000     24.000000
  0.600000 -0.600000 -0.280000     24.000000
  0.560000 -0.560000 -0.240000     24.000000
  0.520000 -0.520000 -0.200000     24.000000
  0.480000 -0.480000 -0.160000     24.000000
  0.440000 -0.440000 -0.120000     24.000000
  0.400000 -0.400000 -0.080000     24.000000
  0.360000 -0.360000 -0.040000     24.000000
  0.320000 -0.320000  0.000000     12.000000
  0.000000  0.000000  0.400000      6.000000
 -0.040000  0.040000  0.440000     24.000000
 -0.080000  0.080000  0.480000     24.000000
 -0.120000  0.120000  0.520000     24.000000
 -0.160000  0.160000  0.560000     24.000000
 -0.200000  0.200000  0.600000     24.000000
 -0.240000  0.240000  0.640000     24.000000
 -0.280000  0.280000  0.680000     24.000000
  0.680000 -0.680000 -0.280000     24.000000
  0.640000 -0.640000 -0.240000     24.000000
  0.600000 -0.600000 -0.200000     24.000000
  0.560000 -0.560000 -0.160000     24.000000
  0.520000 -0.520000 -0.120000     24.000000
  0.480000 -0.480000 -0.080000     24.000000
  0.440000 -0.440000 -0.040000     24.000000
  0.400000 -0.400000  0.000000     12.000000
  0.000000  0.000000  0.480000      6.000000
 -0.040000  0.040000  0.520000     24.000000
 -0.080000  0.080000  0.560000     24.000000
 -0.120000  0.120000  0.600000     24.000000
 -0.160000  0.160000  0.640000     24.000000
 -0.200000  0.200000  0.680000     24.000000
 -0.240000  0.240000  0.720000     24.000000
  0.720000 -0.720000 -0.240000     24.000000
  0.680000 -0.680000 -0.200000     24.000000
  0.640000 -0.640000 -0.160000     24.000000
  0.600000 -0.600000 -0.120000     24.000000
  0.560000 -0.560000 -0.080000     24.000000
  0.520000 -0.520000 -0.040000     24.000000
  0.480000 -0.480000  0.000000     12.000000
  0.000000  0.000000  0.560000      6.000000
 -0.040000  0.040000  0.600000     24.000000
 -0.080000  0.080000  0.640000     24.000000
 -0.120000  0.120000  0.680000     24.000000
 -0.160000  0.160000  0.720000     24.000000
 -0.200000  0.200000  0.760000     24.000000
  0.760000 -0.760000 -0.200000     24.000000
  0.720000 -0.720000 -0.160000     24.000000
  0.680000 -0.680000 -0.120000     24.000000
  0.640000 -0.640000 -0.080000     24.000000
  0.600000 -0.600000 -0.040000     24.000000
  0.560000 -0.560000  0.000000     12.000000
  0.000000  0.000000  0.640000      6.000000
 -0.040000  0.040000  0.680000     24.000000
 -0.080000  0.080000  0.720000     24.000000
 -0.120000  0.120000  0.760000     24.000000
 -0.160000  0.160000  0.800000     24.000000
  0.800000 -0.800000 -0.160000     24.000000
  0.760000 -0.760000 -0.120000     24.000000
  0.720000 -0.720000 -0.080000     24.000000
  0.680000 -0.680000 -0.040000     24.000000
  0.640000 -0.640000  0.000000     12.000000
  0.000000  0.000000  0.720000      6.000000
 -0.040000  0.040000  0.760000     24.000000
 -0.080000  0.080000  0.800000     24.000000
 -0.120000  0.120000  0.840000     24.000000
  0.840000 -0.840000 -0.120000     24.000000
  0.800000 -0.800000 -0.080000     24.000000
  0.760000 -0.760000 -0.040000     24.000000
  0.720000 -0.720000  0.000000     12.000000
  0.000000  0.000000  0.800000      6.000000
 -0.040000  0.040000  0.840000     24.000000
 -0.080000  0.080000  0.880000     24.000000
  0.880000 -0.880000 -0.080000     24.000000
  0.840000 -0.840000 -0.040000     24.000000
  0.800000 -0.800000  0.000000     12.000000
  0.000000  0.000000  0.880000      6.000000
 -0.040000  0.040000  0.920000     24.000000
  0.920000 -0.920000 -0.040000     24.000000
  0.880000 -0.880000  0.000000     12.000000
  0.000000  0.000000  0.960000      6.000000
  0.960000 -0.960000  0.000000     12.000000
  0.000000  0.080000  0.160000     24.000000
 -0.040000  0.120000  0.200000     48.000000
 -0.080000  0.160000  0.240000     48.000000
 -0.120000  0.200000  0.280000     48.000000
 -0.160000  0.240000  0.320000     48.000000
 -0.200000  0.280000  0.360000     48.000000
 -0.240000  0.320000  0.400000     48.000000
 -0.280000  0.360000  0.440000     48.000000
 -0.320000  0.400000  0.480000     48.000000
 -0.360000  0.440000  0.520000     48.000000
  0.600000 -0.520000 -0.440000     48.000000
  0.000000  0.080000  0.240000     24.000000
 -0.040000  0.120000  0.280000     48.000000
 -0.080000  0.160000  0.320000     48.000000
 -0.120000  0.200000  0.360000     48.000000
 -0.160000  0.240000  0.400000     48.000000
 -0.200000  0.280000  0.440000     48.000000
 -0.240000  0.320000  0.480000     48.000000
 -0.280000  0.360000  0.520000     48.000000
 -0.320000  0.400000  0.560000     48.000000
  0.640000 -0.560000 -0.400000     48.000000
  0.600000 -0.520000 -0.360000     48.000000
  0.560000 -0.480000 -0.320000     48.000000
  0.520000 -0.440000 -0.280000     48.000000
  0.480000 -0.400000 -0.240000     48.000000
  0.440000 -0.360000 -0.200000     48.000000
  0.400000 -0.320000 -0.160000     48.000000
  0.360000 -0.280000 -0.120000     48.000000
  0.320000 -0.240000 -0.080000     48.000000
  0.280000 -0.200000 -0.040000     48.000000
  0.240000 -0.160000  0.000000     24.000000
 -0.000000  0.080000  0.320000     24.000000
 -0.040000  0.120000  0.360000     48.000000
 -0.080000  0.160000  0.400000     48.000000
 -0.120000  0.200000  0.440000     48.000000
 -0.160000  0.240000  0.480000     48.000000
 -0.200000  0.280000  0.520000     48.000000
 -0.240000  0.320000  0.560000     48.000000
 -0.280000  0.360000  0.600000     48.000000
  0.680000 -0.600000 -0.360000     48.000000
  0.640000 -0.560000 -0.320000     48.000000
  0.600000 -0.520000 -0.280000     48.000000
  0.560000 -0.480000 -0.240000     48.000000
  0.520000 -0.440000 -0.200000     48.000000
  0.480000 -0.400000 -0.160000     48.000000
  0.440000 -0.360000 -0.120000     48.000000
  0.400000 -0.320000 -0.080000     48.000000
  0.360000 -0.280000 -0.040000     48.000000
  0.320000 -0.240000  0.000000     24.000000
  0.000000  0.080000  0.400000     24.000000
 -0.040000  0.120000  0.440000     48.000000
 -0.080000  0.160000  0.480000     48.000000
 -0.120000  0.200000  0.520000     48.000000
 -0.160000  0.240000  0.560000     48.000000
 -0.200000  0.280000  0.600000     48.000000
 -0.240000  0.320000  0.640000     48.000000
  0.720000 -0.640000 -0.320000     48.000000
  0.680000 -0.600000 -0.280000     48.000000
  0.640000 -0.560000 -0.240000     48.000000
  0.600000 -0.520000 -0.200000     48.000000
  0.560000 -0.480000 -0.160000     48.000000
  0.520000 -0.440000 -0.120000     48.000000
  0.480000 -0.400000 -0.080000     48.000000
  0.440000 -0.360000 -0.040000     48.000000
  0.400000 -0.320000  0.000000     24.000000
  0.000000  0.080000  0.480000     24.000000
 -0.040000  0.120000  0.520000     48.000000
 -0.080000  0.160000  0.560000     48.000000
 -0.120000  0.200000  0.600000     48.000000
 -0.160000  0.240000  0.640000     48.000000
 -0.200000  0.280000  0.680000     48.000000
  0.760000 -0.680000 -0.280000     48.000000
  0.720000 -0.640000 -0.240000     48.000000
  0.680000 -0.600000 -0.200000     48.000000
  0.640000 -0.560000 -0.160000     48.000000
  0.600000 -0.520000 -0.120000     48.000000
  0.560000 -0.480000 -0.080000     48.000000
  0.520000 -0.440000 -0.040000     48.000000
  0.480000 -0.400000 -0.000000     24.000000
 -0.000000  0.080000  0.560000     24.000000
 -0.040000  0.120000  0.600000     48.000000
 -0.080000  0.160000  0.640000     48.000000
 -0.120000  0.200000  0.680000     48.000000
 -0.160000  0.240000  0.720000     48.000000
  0.800000 -0.720000 -0.240000     48.000000
  0.760000 -0.680000 -0.200000     48.000000
  0.720000 -0.640000 -0.160000     48.000000
  0.680000 -0.600000 -0.120000     48.000000
  0.640000 -0.560000 -0.080000     48.000000
  0.600000 -0.520000 -0.040000     48.000000
  0.560000 -0.480000 -0.000000     24.000000
  0.000000  0.080000  0.640000     24.000000
 -0.040000  0.120000  0.680000     48.000000
 -0.080000  0.160000  0.720000     48.000000
 -0.120000  0.200000  0.760000     48.000000
  0.840000 -0.760000 -0.200000     48.000000
  0.800000 -0.720000 -0.160000     48.000000
  0.760000 -0.680000 -0.120000     48.000000
  0.720000 -0.640000 -0.080000     48.000000
  0.680000 -0.600000 -0.040000     48.000000
  0.640000 -0.560000 -0.000000     24.000000
  0.000000  0.080000  0.720000     24.000000
 -0.040000  0.120000  0.760000     48.000000
 -0.080000  0.160000  0.800000     48.000000
  0.880000 -0.800000 -0.160000     48.000000
  0.840000 -0.760000 -0.120000     48.000000
  0.800000 -0.720000 -0.080000     48.000000
  0.760000 -0.680000 -0.040000     48.000000
  0.720000 -0.640000  0.000000     24.000000
  0.000000  0.080000  0.800000     24.000000
 -0.040000  0.120000  0.840000     48.000000
  0.920000 -0.840000 -0.120000     48.000000
  0.880000 -0.800000 -0.080000     48.000000
  0.840000 -0.760000 -0.040000     48.000000
  0.800000 -0.720000 -0.000000     24.000000
  0.000000  0.080000  0.880000     24.000000
  0.960000 -0.880000 -0.080000     48.000000
  0.920000 -0.840000 -0.040000     48.000000
  0.880000 -0.800000  0.000000     24.000000
  1.000000 -0.920000 -0.040000     24.000000
  0.960000 -0.880000  0.000000     24.000000
 -0.000000  0.160000  0.320000     24.000000
 -0.040000  0.200000  0.360000     48.000000
 -0.080000  0.240000  0.400000     48.000000
 -0.120000  0.280000  0.440000     48.000000
 -0.160000  0.320000  0.480000     48.000000
 -0.200000  0.360000  0.520000     48.000000
 -0.240000  0.400000  0.560000     48.000000
  0.720000 -0.560000 -0.400000     48.000000
  0.680000 -0.520000 -0.360000     48.000000
  0.000000  0.160000  0.400000     24.000000
 -0.040000  0.200000  0.440000     48.000000
 -0.080000  0.240000  0.480000     48.000000
 -0.120000  0.280000  0.520000     48.000000
 -0.160000  0.320000  0.560000     48.000000
 -0.200000  0.360000  0.600000     48.000000
  0.760000 -0.600000 -0.360000     48.000000
  0.720000 -0.560000 -0.320000     48.000000
  0.680000 -0.520000 -0.280000     48.000000
  0.640000 -0.480000 -0.240000     48.000000
  0.600000 -0.440000 -0.200000     48.000000
  0.560000 -0.400000 -0.160000     48.000000
  0.520000 -0.360000 -0.120000     48.000000
  0.480000 -0.320000 -0.080000     48.000000
  0.440000 -0.280000 -0.040000     48.000000
  0.400000 -0.240000  0.000000     24.000000
  0.000000  0.160000  0.480000     24.000000
 -0.040000  0.200000  0.520000     48.000000
 -0.080000  0.240000  0.560000     48.000000
 -0.120000  0.280000  0.600000     48.000000
 -0.160000  0.320000  0.640000     48.000000
  0.800000 -0.640000 -0.320000     48.000000
  0.760000 -0.600000 -0.280000     48.000000
  0.720000 -0.560000 -0.240000     48.000000
  0.680000 -0.520000 -0.200000     48.000000
  0.640000 -0.480000 -0.160000     48.000000
  0.600000 -0.440000 -0.120000     48.000000
  0.560000 -0.400000 -0.080000     48.000000
  0.520000 -0.360000 -0.040000     48.000000
  0.480000 -0.320000  0.000000     24.000000
  0.000000  0.160000  0.560000     24.000000
 -0.040000  0.200000  0.600000     48.000000
 -0.080000  0.240000  0.640000     48.000000
 -0.120000  0.280000  0.680000     48.000000
  0.840000 -0.680000 -0.280000     48.000000
  0.800000 -0.640000 -0.240000     48.000000
  0.760000 -0.600000 -0.200000     48.000000
  0.720000 -0.560000 -0.160000     48.000000
  0.680000 -0.520000 -0.120000     48.000000
  0.640000 -0.480000 -0.080000     48.000000
  0.600000 -0.440000 -0.040000     48.000000
  0.560000 -0.400000  0.000000     24.000000
  0.000000  0.160000  0.640000     24.000000
 -0.040000  0.200000  0.680000     48.000000
 -0.080000  0.240000  0.720000     48.000000
  0.880000 -0.720000 -0.240000     48.000000
  0.840000 -0.680000 -0.200000     48.000000
  0.800000 -0.640000 -0.160000     48.000000
  0.760000 -0.600000 -0.120000     48.000000
  0.720000 -0.560000 -0.080000     48.000000
  0.680000 -0.520000 -0.040000     48.000000
  0.640000 -0.480000 -0.000000     24.000000
  0.000000  0.160000  0.720000     24.000000
 -0.040000  0.200000  0.760000     48.000000
  0.920000 -0.760000 -0.200000     48.000000
  0.880000 -0.720000 -0.160000     48.000000
  0.840000 -0.680000 -0.120000     48.000000
  0.800000 -0.640000 -0.080000     48.000000
  0.760000 -0.600000 -0.040000     48.000000
  0.720000 -0.560000  0.000000     24.000000
  0.000000  0.160000  0.800000     24.000000
  0.960000 -0.800000 -0.160000     48.000000
  0.920000 -0.760000 -0.120000     48.000000
  0.880000 -0.720000 -0.080000     48.000000
  0.840000 -0.680000 -0.040000     48.000000
  0.800000 -0.640000  0.000000     24.000000
  1.000000 -0.840000 -0.120000     24.000000
  0.960000 -0.800000 -0.080000     48.000000
  0.920000 -0.760000 -0.040000     48.000000
  0.880000 -0.720000 -0.000000     24.000000
  1.000000 -0.840000 -0.040000     24.000000
  0.960000 -0.800000 -0.000000     24.000000
  0.000000  0.240000  0.480000     24.000000
 -0.040000  0.280000  0.520000     48.000000
 -0.080000  0.320000  0.560000     48.000000
 -0.120000  0.360000  0.600000     48.000000
  0.840000 -0.600000 -0.360000     48.000000
  0.800000 -0.560000 -0.320000     48.000000
  0.760000 -0.520000 -0.280000     48.000000
  0.000000  0.240000  0.560000     24.000000
 -0.040000  0.280000  0.600000     48.000000
 -0.080000  0.320000  0.640000     48.000000
  0.880000 -0.640000 -0.320000     48.000000
  0.840000 -0.600000 -0.280000     48.000000
  0.800000 -0.560000 -0.240000     48.000000
  0.760000 -0.520000 -0.200000     48.000000
  0.720000 -0.480000 -0.160000     48.000000
  0.680000 -0.440000 -0.120000     48.000000
  0.640000 -0.400000 -0.080000     48.000000
  0.600000 -0.360000 -0.040000     48.000000
  0.560000 -0.320000  0.000000     24.000000
 -0.000000  0.240000  0.640000     24.000000
 -0.040000  0.280000  0.680000     48.000000
  0.920000 -0.680000 -0.280000     48.000000
  0.880000 -0.640000 -0.240000     48.000000
  0.840000 -0.600000 -0.200000     48.000000
  0.800000 -0.560000 -0.160000     48.000000
  0.760000 -0.520000 -0.120000     48.000000
  0.720000 -0.480000 -0.080000     48.000000
  0.680000 -0.440000 -0.040000     48.000000
  0.640000 -0.400000 -0.000000     24.000000
  0.000000  0.240000  0.720000     24.000000
  0.960000 -0.720000 -0.240000     48.000000
  0.920000 -0.680000 -0.200000     48.000000
  0.880000 -0.640000 -0.160000     48.000000
  0.840000 -0.600000 -0.120000     48.000000
  0.800000 -0.560000 -0.080000     48.000000
  0.760000 -0.520000 -0.040000     48.000000
  0.720000 -0.480000 -0.000000     24.000000
  1.000000 -0.760000 -0.200000     24.000000
  0.960000 -0.720000 -0.160000     48.000000
  0.920000 -0.680000 -0.120000     48.000000
  0.880000 -0.640000 -0.080000     48.000000
  0.840000 -0.600000 -0.040000     48.000000
  0.800000 -0.560000  0.000000     24.000000
  1.000000 -0.760000 -0.120000     24.000000
  0.960000 -0.720000 -0.080000     48.000000
  0.920000 -0.680000 -0.040000     48.000000
  0.880000 -0.640000  0.000000     24.000000
  1.000000 -0.760000 -0.040000     24.000000
  0.960000 -0.720000  0.000000     24.000000
  0.000000  0.320000  0.640000     24.000000
  0.960000 -0.640000 -0.320000     48.000000
  0.920000 -0.600000 -0.280000     48.000000
  0.880000 -0.560000 -0.240000     48.000000
  0.840000 -0.520000 -0.200000     48.000000
  1.000000 -0.680000 -0.280000     24.000000
  0.960000 -0.640000 -0.240000     48.000000
  0.920000 -0.600000 -0.200000     48.000000
  0.880000 -0.560000 -0.160000     48.000000
  0.840000 -0.520000 -0.120000     48.000000
  0.800000 -0.480000 -0.080000     48.000000
  0.760000 -0.440000 -0.040000     48.000000
  0.720000 -0.400000  0.000000     24.000000
  1.000000 -0.680000 -0.200000     24.000000
  0.960000 -0.640000 -0.160000     48.000000
  0.920000 -0.600000 -0.120000     48.000000
  0.880000 -0.560000 -0.080000     48.000000
  0.840000 -0.520000 -0.040000     48.000000
  0.800000 -0.480000  0.000000     24.000000
  1.000000 -0.680000 -0.120000     24.000000
  0.960000 -0.640000 -0.080000     48.000000
  0.920000 -0.600000 -0.040000     48.000000
  0.880000 -0.560000  0.000000     24.000000
  1.000000 -0.680000 -0.040000     24.000000
  0.960000 -0.640000  0.000000     24.000000
  1.000000 -0.600000 -0.200000     24.000000
  0.960000 -0.560000 -0.160000     48.000000
  0.920000 -0.520000 -0.120000     48.000000
  1.000000 -0.600000 -0.120000     24.000000
  0.960000 -0.560000 -0.080000     48.000000
  0.920000 -0.520000 -0.040000     48.000000
  0.880000 -0.480000 -0.000000     24.000000
  1.000000 -0.600000 -0.040000     24.000000
  0.960000 -0.560000 -0.000000     24.000000
  1.000000 -0.520000 -0.040000     24.000000
 


--------------------------------------------------------------------------------------------------------




 Dimension of arrays:
   k-points           NKPTS =    455   k-points in BZ     NKDIM =    455   number of bands    NBANDS=      8
   number of dos      NEDOS =    301   number of ions     NIONS =      2
   non local maximal  LDIM  =      4   non local SUM 2l+1 LMDIM =      8
   total plane-waves  NPLWV =  46656
   max r-space proj   IRMAX =      1   max aug-charges    IRDMAX= 303473
   dimension x,y,z NGX =    36 NGY =   36 NGZ =   36
   dimension x,y,z NGXF=    72 NGYF=   72 NGZF=   72
   support grid    NGXF=   144 NGYF=  144 NGZF=  144
   ions per type =               2
   NGX,Y,Z   is equivalent  to a cutoff of  15.44, 15.44, 15.44 a.u.
   NGXF,Y,Z  is equivalent  to a cutoff of  30.89, 30.89, 30.89 a.u.

 SYSTEM =  Si                                      
 POSCAR =  Unknown                                 

 Startparameter for this run:
   NWRITE =      2    write-flag & timer
   PREC   = accura    normal or accurate (medium, high low for compatibility)
   ISTART =      0    job   : 0-new  1-cont  2-samecut
   ICHARG =      2    charge: 1-file 2-atom 10-const
   ISPIN  =      1    spin polarized calculation?
   LNONCOLLINEAR =      F non collinear calculations
   LSORBIT =      F    spin-orbit coupling
   INIWAV =      1    electr: 0-lowe 1-rand  2-diag
   LASPH  =      T    aspherical Exc in radial PAW
   METAGGA=      F    non-selfconsistent MetaGGA calc.

 Electronic Relaxation 1
   ENCUT  =  800.0 eV  58.80 Ry    7.67 a.u.   8.94  8.94  8.94*2*pi/ulx,y,z
   ENINI  =  800.0     initial cutoff
   ENAUG  =  900.0 eV  augmentation charge cutoff
   NELM   =    200;   NELMIN=  6; NELMDL=  0     # of ELM steps 
   EDIFF  = 0.1E-06   stopping-criterion for ELM
   LREAL  =      F    real-space projection
   NLSPLINE    = F    spline interpolate recip. space projectors
   LCOMPAT=      F    compatible to vasp.4.4
   GGA_COMPAT  = T    GGA compatible to vasp.4.4-vasp.4.6
   LMAXPAW     = -100 max onsite density
   LMAXMIX     =    4 max onsite mixed and CHGCAR
   VOSKOWN=      0    Vosko Wilk Nusair interpolation
   ROPT   =    0.00000
 Ionic relaxation
   EDIFFG = 0.1E-05   stopping-criterion for IOM
   NSW    =      0    number of steps for IOM
   NBLOCK =      1;   KBLOCK =      1    inner block; outer block 
   IBRION =     -1    ionic relax: 0-MD 1-quasi-New 2-CG
   NFREE  =      0    steps in history (QN), initial steepest desc. (CG)
   ISIF   =      2    stress and relaxation
   IWAVPR =     10    prediction:  0-non 1-charg 2-wave 3-comb
   ISYM   =      2    0-nonsym 1-usesym 2-fastsym
   LCORR  =      T    Harris-Foulkes like correction to forces

   POTIM  = 0.5000    time-step for ionic-motion
   TEIN   =    0.0    initial temperature
   TEBEG  =    0.0;   TEEND  =   0.0 temperature during run
   SMASS  =  -3.00    Nose mass-parameter (am)
   estimated Nose-frequenzy (Omega)   =  0.10E-29 period in steps = 0.13E+47 mass=  -0.343E-27a.u.
   SCALEE = 1.0000    scale energy and forces
   NPACO  =    256;   APACO  = 16.0  distance and # of slots for P.C.
   PSTRESS=    0.0 pullay stress

  Mass of Ions in am
   POMASS =  28.09
  Ionic Valenz
   ZVAL   =   4.00
  Atomic Wigner-Seitz radii
   RWIGS  =  -1.00
  virtual crystal weights 
   VCA    =   1.00
   NELECT =       8.0000    total number of electrons
   NUPDOWN=      -1.0000    fix difference up-down

 DOS related values:
   EMIN   =  10.00;   EMAX   =-10.00  energy-range for DOS
   EFERMI =   0.00
   ISMEAR =    -5;   SIGMA  =   0.20  broadening in eV -4-tet -1-fermi 0-gaus

 Electronic relaxation 2 (details)
   IALGO  =     38    algorithm
   LDIAG  =      T    sub-space diagonalisation (order eigenvalues)
   LSUBROT=      F    optimize rotation matrix (better conditioning)
   TURBO    =      0    0=normal 1=particle mesh
   IRESTART =      0    0=no restart 2=restart with 2 vectors
   NREBOOT  =      0    no. of reboots
   NMIN     =      0    reboot dimension
   EREF     =   0.00    reference energy to select bands
   IMIX   =      4    mixing-type and parameters
     AMIX     =   0.40;   BMIX     =  1.00
     AMIX_MAG =   1.60;   BMIX_MAG =  1.00
     AMIN     =   0.10
     WC   =   100.;   INIMIX=   1;  MIXPRE=   1;  MAXMIX= -45

 Intra band minimization:
   WEIMIN = 0.0000     energy-eigenvalue tresh-hold
   EBREAK =  0.31E-08  absolut break condition
   DEPER  =   0.30     relativ break condition  

   TIME   =   0.40     timestep for ELM

  volume/ion in A,a.u.               =      20.57       138.83
  Fermi-wavevector in a.u.,A,eV,Ry     =   0.948420  1.792253 12.238439  0.899500
  Thomas-Fermi vector in A             =   2.076606
 
 Write flags
   LWAVE        =      F    write WAVECAR
   LDOWNSAMPLE  =      F    k-point downsampling of WAVECAR
   LCHARG       =      F    write CHGCAR
   LVTOT        =      F    write LOCPOT, total local potential
   LVHAR        =      F    write LOCPOT, Hartree potential only
   LELF         =      F    write electronic localiz. function (ELF)
   LORBIT       =     11    0 simple, 1 ext, 2 COOP (PROOUT), +10 PAW based schemes


 Dipole corrections
   LMONO  =      F    monopole corrections only (constant potential shift)
   LDIPOL =      F    correct potential (dipole corrections)
   IDIPOL =      0    1-x, 2-y, 3-z, 4-all directions 
   EPSILON=  1.0000000 bulk dielectric constant

 Exchange correlation treatment:
   GGA     =    PE    GGA type
   LEXCH   =     8    internal setting for exchange type
   VOSKOWN=      0    Vosko Wilk Nusair interpolation
   LHFCALC =     F    Hartree Fock is set to
   LHFONE  =     F    Hartree Fock one center treatment
   AEXX    =    0.0000 exact exchange contribution

 Linear response parameters
   LEPSILON=     F    determine dielectric tensor
   LRPA    =     F    only Hartree local field effects (RPA)
   LNABLA  =     F    use nabla operator in PAW spheres
   LVEL    =     F    velocity operator in full k-point grid
   LINTERFAST=   F  fast interpolation
   KINTER  =     0    interpolate to denser k-point grid
   CSHIFT  =0.1000    complex shift for real part using Kramers Kronig
   OMEGAMAX=  -1.0    maximum frequency
   DEG_THRESHOLD= 0.2000000E-02 threshold for treating states as degnerate
   RTIME   =   -0.100 relaxation time in fs
  (WPLASMAI=    0.000 imaginary part of plasma frequency in eV, 0.658/RTIME)
   DFIELD  = 0.0000000 0.0000000 0.0000000 field for delta impulse in time
 
 Orbital magnetization related:
   ORBITALMAG=     F  switch on orbital magnetization
   LCHIMAG   =     F  perturbation theory with respect to B field
   DQ        =  0.001000  dq finite difference perturbation B field
   LLRAUG    =     F  two centre corrections for induced B field



--------------------------------------------------------------------------------------------------------


 Static calculation
 charge density and potential will be updated during run
 non-spin polarized calculation
 Variant of blocked Davidson
 Davidson routine will perform the subspace rotation
 perform sub-space diagonalisation
    after iterative eigenvector-optimisation
 modified Broyden-mixing scheme, WC =      100.0
 initial mixing is a Kerker type mixing with AMIX =  0.4000 and BMIX =      1.0000
 Hartree-type preconditioning will be used
 using additional bands            4
 reciprocal scheme for non local part
 use partial core corrections
 calculate Harris-corrections to forces 
   (improved forces if not selfconsistent)
 use gradient corrections 
 use of overlap-Matrix (Vanderbilt PP)
 Fermi weights with tetrahedron method with Bloechl corrections


--------------------------------------------------------------------------------------------------------


  energy-cutoff  :      800.00
  volume of cell :       41.14
      direct lattice vectors                 reciprocal lattice vectors
     0.000000000  2.740065503  2.740065503    -0.182477390  0.182477390  0.182477390
     2.740065503  0.000000000  2.740065503     0.182477390 -0.182477390  0.182477390
     2.740065503  2.740065503  0.000000000     0.182477390  0.182477390 -0.182477390

  length of vectors
     3.875037796  3.875037796  3.875037796     0.316060110  0.316060110  0.316060110


 
 k-points in units of 2pi/SCALE and weight: read from INCAR                         
   0.00000000  0.00000000  0.00000000       0.000
  -0.04000000  0.04000000  0.04000000       0.001
  -0.08000000  0.08000000  0.08000000       0.001
  -0.12000000  0.12000000  0.12000000       0.001
  -0.16000000  0.16000000  0.16000000       0.001
  -0.20000000  0.20000000  0.20000000       0.001
  -0.24000000  0.24000000  0.24000000       0.001
  -0.28000000  0.28000000  0.28000000       0.001
  -0.32000000  0.32000000  0.32000000       0.001
  -0.36000000  0.36000000  0.36000000       0.001
  -0.40000000  0.40000000  0.40000000       0.001
  -0.44000000  0.44000000  0.44000000       0.001
  -0.48000000  0.48000000  0.48000000       0.001
   0.00000000  0.00000000  0.08000000       0.000
  -0.04000000  0.04000000  0.12000000       0.002
  -0.08000000  0.08000000  0.16000000       0.002
  -0.12000000  0.12000000  0.20000000       0.002
  -0.16000000  0.16000000  0.24000000       0.002
  -0.20000000  0.20000000  0.28000000       0.002
  -0.24000000  0.24000000  0.32000000       0.002
  -0.28000000  0.28000000  0.36000000       0.002
  -0.32000000  0.32000000  0.40000000       0.002
  -0.36000000  0.36000000  0.44000000       0.002
  -0.40000000  0.40000000  0.48000000       0.002
  -0.44000000  0.44000000  0.52000000       0.002
   0.52000000 -0.52000000 -0.44000000       0.002
   0.48000000 -0.48000000 -0.40000000       0.002
   0.44000000 -0.44000000 -0.36000000       0.002
   0.40000000 -0.40000000 -0.32000000       0.002
   0.36000000 -0.36000000 -0.28000000       0.002
   0.32000000 -0.32000000 -0.24000000       0.002
   0.28000000 -0.28000000 -0.20000000       0.002
   0.24000000 -0.24000000 -0.16000000       0.002
   0.20000000 -0.20000000 -0.12000000       0.002
   0.16000000 -0.16000000 -0.08000000       0.002
   0.12000000 -0.12000000 -0.04000000       0.002
   0.08000000 -0.08000000  0.00000000       0.001
   0.00000000  0.00000000  0.16000000       0.000
  -0.04000000  0.04000000  0.20000000       0.002
  -0.08000000  0.08000000  0.24000000       0.002
  -0.12000000  0.12000000  0.28000000       0.002
  -0.16000000  0.16000000  0.32000000       0.002
  -0.20000000  0.20000000  0.36000000       0.002
  -0.24000000  0.24000000  0.40000000       0.002
  -0.28000000  0.28000000  0.44000000       0.002
  -0.32000000  0.32000000  0.48000000       0.002
  -0.36000000  0.36000000  0.52000000       0.002
  -0.40000000  0.40000000  0.56000000       0.002
   0.56000000 -0.56000000 -0.40000000       0.002
   0.52000000 -0.52000000 -0.36000000       0.002
   0.48000000 -0.48000000 -0.32000000       0.002
   0.44000000 -0.44000000 -0.28000000       0.002
   0.40000000 -0.40000000 -0.24000000       0.002
   0.36000000 -0.36000000 -0.20000000       0.002
   0.32000000 -0.32000000 -0.16000000       0.002
   0.28000000 -0.28000000 -0.12000000       0.002
   0.24000000 -0.24000000 -0.08000000       0.002
   0.20000000 -0.20000000 -0.04000000       0.002
   0.16000000 -0.16000000  0.00000000       0.001
   0.00000000  0.00000000  0.24000000       0.000
  -0.04000000  0.04000000  0.28000000       0.002
  -0.08000000  0.08000000  0.32000000       0.002
  -0.12000000  0.12000000  0.36000000       0.002
  -0.16000000  0.16000000  0.40000000       0.002
  -0.20000000  0.20000000  0.44000000       0.002
  -0.24000000  0.24000000  0.48000000       0.002
  -0.28000000  0.28000000  0.52000000       0.002
  -0.32000000  0.32000000  0.56000000       0.002
  -0.36000000  0.36000000  0.60000000       0.002
   0.60000000 -0.60000000 -0.36000000       0.002
   0.56000000 -0.56000000 -0.32000000       0.002
   0.52000000 -0.52000000 -0.28000000       0.002
   0.48000000 -0.48000000 -0.24000000       0.002
   0.44000000 -0.44000000 -0.20000000       0.002
   0.40000000 -0.40000000 -0.16000000       0.002
   0.36000000 -0.36000000 -0.12000000       0.002
   0.32000000 -0.32000000 -0.08000000       0.002
   0.28000000 -0.28000000 -0.04000000       0.002
   0.24000000 -0.24000000  0.00000000       0.001
   0.00000000  0.00000000  0.32000000       0.000
  -0.04000000  0.04000000  0.36000000       0.002
  -0.08000000  0.08000000  0.40000000       0.002
  -0.12000000  0.12000000  0.44000000       0.002
  -0.16000000  0.16000000  0.48000000       0.002
  -0.20000000  0.20000000  0.52000000       0.002
  -0.24000000  0.24000000  0.56000000       0.002
  -0.28000000  0.28000000  0.60000000       0.002
  -0.32000000  0.32000000  0.64000000       0.002
   0.64000000 -0.64000000 -0.32000000       0.002
   0.60000000 -0.60000000 -0.28000000       0.002
   0.56000000 -0.56000000 -0.24000000       0.002
   0.52000000 -0.52000000 -0.20000000       0.002
   0.48000000 -0.48000000 -0.16000000       0.002
   0.44000000 -0.44000000 -0.12000000       0.002
   0.40000000 -0.40000000 -0.08000000       0.002
   0.36000000 -0.36000000 -0.04000000       0.002
   0.32000000 -0.32000000  0.00000000       0.001
   0.00000000  0.00000000  0.40000000       0.000
  -0.04000000  0.04000000  0.44000000       0.002
  -0.08000000  0.08000000  0.48000000       0.002
  -0.12000000  0.12000000  0.52000000       0.002
  -0.16000000  0.16000000  0.56000000       0.002
  -0.20000000  0.20000000  0.60000000       0.002
  -0.24000000  0.24000000  0.64000000       0.002
  -0.28000000  0.28000000  0.68000000       0.002
   0.68000000 -0.68000000 -0.28000000       0.002
   0.64000000 -0.64000000 -0.24000000       0.002
   0.60000000 -0.60000000 -0.20000000       0.002
   0.56000000 -0.56000000 -0.16000000       0.002
   0.52000000 -0.52000000 -0.12000000       0.002
   0.48000000 -0.48000000 -0.08000000       0.002
   0.44000000 -0.44000000 -0.04000000       0.002
   0.40000000 -0.40000000  0.00000000       0.001
   0.00000000  0.00000000  0.48000000       0.000
  -0.04000000  0.04000000  0.52000000       0.002
  -0.08000000  0.08000000  0.56000000       0.002
  -0.12000000  0.12000000  0.60000000       0.002
  -0.16000000  0.16000000  0.64000000       0.002
  -0.20000000  0.20000000  0.68000000       0.002
  -0.24000000  0.24000000  0.72000000       0.002
   0.72000000 -0.72000000 -0.24000000       0.002
   0.68000000 -0.68000000 -0.20000000       0.002
   0.64000000 -0.64000000 -0.16000000       0.002
   0.60000000 -0.60000000 -0.12000000       0.002
   0.56000000 -0.56000000 -0.08000000       0.002
   0.52000000 -0.52000000 -0.04000000       0.002
   0.48000000 -0.48000000  0.00000000       0.001
   0.00000000  0.00000000  0.56000000       0.000
  -0.04000000  0.04000000  0.60000000       0.002
  -0.08000000  0.08000000  0.64000000       0.002
  -0.12000000  0.12000000  0.68000000       0.002
  -0.16000000  0.16000000  0.72000000       0.002
  -0.20000000  0.20000000  0.76000000       0.002
   0.76000000 -0.76000000 -0.20000000       0.002
   0.72000000 -0.72000000 -0.16000000       0.002
   0.68000000 -0.68000000 -0.12000000       0.002
   0.64000000 -0.64000000 -0.08000000       0.002
   0.60000000 -0.60000000 -0.04000000       0.002
   0.56000000 -0.56000000  0.00000000       0.001
   0.00000000  0.00000000  0.64000000       0.000
  -0.04000000  0.04000000  0.68000000       0.002
  -0.08000000  0.08000000  0.72000000       0.002
  -0.12000000  0.12000000  0.76000000       0.002
  -0.16000000  0.16000000  0.80000000       0.002
   0.80000000 -0.80000000 -0.16000000       0.002
   0.76000000 -0.76000000 -0.12000000       0.002
   0.72000000 -0.72000000 -0.08000000       0.002
   0.68000000 -0.68000000 -0.04000000       0.002
   0.64000000 -0.64000000  0.00000000       0.001
   0.00000000  0.00000000  0.72000000       0.000
  -0.04000000  0.04000000  0.76000000       0.002
  -0.08000000  0.08000000  0.80000000       0.002
  -0.12000000  0.12000000  0.84000000       0.002
   0.84000000 -0.84000000 -0.12000000       0.002
   0.80000000 -0.80000000 -0.08000000       0.002
   0.76000000 -0.76000000 -0.04000000       0.002
   0.72000000 -0.72000000  0.00000000       0.001
   0.00000000  0.00000000  0.80000000       0.000
  -0.04000000  0.04000000  0.84000000       0.002
  -0.08000000  0.08000000  0.88000000       0.002
   0.88000000 -0.88000000 -0.08000000       0.002
   0.84000000 -0.84000000 -0.04000000       0.002
   0.80000000 -0.80000000  0.00000000       0.001
   0.00000000  0.00000000  0.88000000       0.000
  -0.04000000  0.04000000  0.92000000       0.002
   0.92000000 -0.92000000 -0.04000000       0.002
   0.88000000 -0.88000000  0.00000000       0.001
   0.00000000  0.00000000  0.96000000       0.000
   0.96000000 -0.96000000  0.00000000       0.001
   0.00000000  0.08000000  0.16000000       0.002
  -0.04000000  0.12000000  0.20000000       0.003
  -0.08000000  0.16000000  0.24000000       0.003
  -0.12000000  0.20000000  0.28000000       0.003
  -0.16000000  0.24000000  0.32000000       0.003
  -0.20000000  0.28000000  0.36000000       0.003
  -0.24000000  0.32000000  0.40000000       0.003
  -0.28000000  0.36000000  0.44000000       0.003
  -0.32000000  0.40000000  0.48000000       0.003
  -0.36000000  0.44000000  0.52000000       0.003
   0.60000000 -0.52000000 -0.44000000       0.003
   0.00000000  0.08000000  0.24000000       0.002
  -0.04000000  0.12000000  0.28000000       0.003
  -0.08000000  0.16000000  0.32000000       0.003
  -0.12000000  0.20000000  0.36000000       0.003
  -0.16000000  0.24000000  0.40000000       0.003
  -0.20000000  0.28000000  0.44000000       0.003
  -0.24000000  0.32000000  0.48000000       0.003
  -0.28000000  0.36000000  0.52000000       0.003
  -0.32000000  0.40000000  0.56000000       0.003
   0.64000000 -0.56000000 -0.40000000       0.003
   0.60000000 -0.52000000 -0.36000000       0.003
   0.56000000 -0.48000000 -0.32000000       0.003
   0.52000000 -0.44000000 -0.28000000       0.003
   0.48000000 -0.40000000 -0.24000000       0.003
   0.44000000 -0.36000000 -0.20000000       0.003
   0.40000000 -0.32000000 -0.16000000       0.003
   0.36000000 -0.28000000 -0.12000000       0.003
   0.32000000 -0.24000000 -0.08000000       0.003
   0.28000000 -0.20000000 -0.04000000       0.003
   0.24000000 -0.16000000  0.00000000       0.002
  -0.00000000  0.08000000  0.32000000       0.002
  -0.04000000  0.12000000  0.36000000       0.003
  -0.08000000  0.16000000  0.40000000       0.003
  -0.12000000  0.20000000  0.44000000       0.003
  -0.16000000  0.24000000  0.48000000       0.003
  -0.20000000  0.28000000  0.52000000       0.003
  -0.24000000  0.32000000  0.56000000       0.003
  -0.28000000  0.36000000  0.60000000       0.003
   0.68000000 -0.60000000 -0.36000000       0.003
   0.64000000 -0.56000000 -0.32000000       0.003
   0.60000000 -0.52000000 -0.28000000       0.003
   0.56000000 -0.48000000 -0.24000000       0.003
   0.52000000 -0.44000000 -0.20000000       0.003
   0.48000000 -0.40000000 -0.16000000       0.003
   0.44000000 -0.36000000 -0.12000000       0.003
   0.40000000 -0.32000000 -0.08000000       0.003
   0.36000000 -0.28000000 -0.04000000       0.003
   0.32000000 -0.24000000  0.00000000       0.002
   0.00000000  0.08000000  0.40000000       0.002
  -0.04000000  0.12000000  0.44000000       0.003
  -0.08000000  0.16000000  0.48000000       0.003
  -0.12000000  0.20000000  0.52000000       0.003
  -0.16000000  0.24000000  0.56000000       0.003
  -0.20000000  0.28000000  0.60000000       0.003
  -0.24000000  0.32000000  0.64000000       0.003
   0.72000000 -0.64000000 -0.32000000       0.003
   0.68000000 -0.60000000 -0.28000000       0.003
   0.64000000 -0.56000000 -0.24000000       0.003
   0.60000000 -0.52000000 -0.20000000       0.003
   0.56000000 -0.48000000 -0.16000000       0.003
   0.52000000 -0.44000000 -0.12000000       0.003
   0.48000000 -0.40000000 -0.08000000       0.003
   0.44000000 -0.36000000 -0.04000000       0.003
   0.40000000 -0.32000000  0.00000000       0.002
   0.00000000  0.08000000  0.48000000       0.002
  -0.04000000  0.12000000  0.52000000       0.003
  -0.08000000  0.16000000  0.56000000       0.003
  -0.12000000  0.20000000  0.60000000       0.003
  -0.16000000  0.24000000  0.64000000       0.003
  -0.20000000  0.28000000  0.68000000       0.003
   0.76000000 -0.68000000 -0.28000000       0.003
   0.72000000 -0.64000000 -0.24000000       0.003
   0.68000000 -0.60000000 -0.20000000       0.003
   0.64000000 -0.56000000 -0.16000000       0.003
   0.60000000 -0.52000000 -0.12000000       0.003
   0.56000000 -0.48000000 -0.08000000       0.003
   0.52000000 -0.44000000 -0.04000000       0.003
   0.48000000 -0.40000000 -0.00000000       0.002
  -0.00000000  0.08000000  0.56000000       0.002
  -0.04000000  0.12000000  0.60000000       0.003
  -0.08000000  0.16000000  0.64000000       0.003
  -0.12000000  0.20000000  0.68000000       0.003
  -0.16000000  0.24000000  0.72000000       0.003
   0.80000000 -0.72000000 -0.24000000       0.003
   0.76000000 -0.68000000 -0.20000000       0.003
   0.72000000 -0.64000000 -0.16000000       0.003
   0.68000000 -0.60000000 -0.12000000       0.003
   0.64000000 -0.56000000 -0.08000000       0.003
   0.60000000 -0.52000000 -0.04000000       0.003
   0.56000000 -0.48000000 -0.00000000       0.002
   0.00000000  0.08000000  0.64000000       0.002
  -0.04000000  0.12000000  0.68000000       0.003
  -0.08000000  0.16000000  0.72000000       0.003
  -0.12000000  0.20000000  0.76000000       0.003
   0.84000000 -0.76000000 -0.20000000       0.003
   0.80000000 -0.72000000 -0.16000000       0.003
   0.76000000 -0.68000000 -0.12000000       0.003
   0.72000000 -0.64000000 -0.08000000       0.003
   0.68000000 -0.60000000 -0.04000000       0.003
   0.64000000 -0.56000000 -0.00000000       0.002
   0.00000000  0.08000000  0.72000000       0.002
  -0.04000000  0.12000000  0.76000000       0.003
  -0.08000000  0.16000000  0.80000000       0.003
   0.88000000 -0.80000000 -0.16000000       0.003
   0.84000000 -0.76000000 -0.12000000       0.003
   0.80000000 -0.72000000 -0.08000000       0.003
   0.76000000 -0.68000000 -0.04000000       0.003
   0.72000000 -0.64000000  0.00000000       0.002
   0.00000000  0.08000000  0.80000000       0.002
  -0.04000000  0.12000000  0.84000000       0.003
   0.92000000 -0.84000000 -0.12000000       0.003
   0.88000000 -0.80000000 -0.08000000       0.003
   0.84000000 -0.76000000 -0.04000000       0.003
   0.80000000 -0.72000000 -0.00000000       0.002
   0.00000000  0.08000000  0.88000000       0.002
   0.96000000 -0.88000000 -0.08000000       0.003
   0.92000000 -0.84000000 -0.04000000       0.003
   0.88000000 -0.80000000  0.00000000       0.002
   1.00000000 -0.92000000 -0.04000000       0.002
   0.96000000 -0.88000000  0.00000000       0.002
  -0.00000000  0.16000000  0.32000000       0.002
  -0.04000000  0.20000000  0.36000000       0.003
  -0.08000000  0.24000000  0.40000000       0.003
  -0.12000000  0.28000000  0.44000000       0.003
  -0.16000000  0.32000000  0.48000000       0.003
  -0.20000000  0.36000000  0.52000000       0.003
  -0.24000000  0.40000000  0.56000000       0.003
   0.72000000 -0.56000000 -0.40000000       0.003
   0.68000000 -0.52000000 -0.36000000       0.003
   0.00000000  0.16000000  0.40000000       0.002
  -0.04000000  0.20000000  0.44000000       0.003
  -0.08000000  0.24000000  0.48000000       0.003
  -0.12000000  0.28000000  0.52000000       0.003
  -0.16000000  0.32000000  0.56000000       0.003
  -0.20000000  0.36000000  0.60000000       0.003
   0.76000000 -0.60000000 -0.36000000       0.003
   0.72000000 -0.56000000 -0.32000000       0.003
   0.68000000 -0.52000000 -0.28000000       0.003
   0.64000000 -0.48000000 -0.24000000       0.003
   0.60000000 -0.44000000 -0.20000000       0.003
   0.56000000 -0.40000000 -0.16000000       0.003
   0.52000000 -0.36000000 -0.12000000       0.003
   0.48000000 -0.32000000 -0.08000000       0.003
   0.44000000 -0.28000000 -0.04000000       0.003
   0.40000000 -0.24000000  0.00000000       0.002
   0.00000000  0.16000000  0.48000000       0.002
  -0.04000000  0.20000000  0.52000000       0.003
  -0.08000000  0.24000000  0.56000000       0.003
  -0.12000000  0.28000000  0.60000000       0.003
  -0.16000000  0.32000000  0.64000000       0.003
   0.80000000 -0.64000000 -0.32000000       0.003
   0.76000000 -0.60000000 -0.28000000       0.003
   0.72000000 -0.56000000 -0.24000000       0.003
   0.68000000 -0.52000000 -0.20000000       0.003
   0.64000000 -0.48000000 -0.16000000       0.003
   0.60000000 -0.44000000 -0.12000000       0.003
   0.56000000 -0.40000000 -0.08000000       0.003
   0.52000000 -0.36000000 -0.04000000       0.003
   0.48000000 -0.32000000  0.00000000       0.002
   0.00000000  0.16000000  0.56000000       0.002
[...]
      8      12.6332      0.00000

 k-point   422 :      -0.4800    0.3200    0.1600
  band No.  band energies     occupation 
      1      -4.3829      2.00000
      2      -0.5517      2.00000
      3       1.7315      2.00000
      4       3.0845      2.00000
      5       8.7466      0.00000
      6       9.6588      0.00000
      7       9.9342      0.00000
      8      12.9298      0.00000

 k-point   423 :      -0.4400    0.3200    0.1600
  band No.  band energies     occupation 
      1      -4.0732      2.00000
      2      -0.9555      2.00000
      3       1.5843      2.00000
      4       2.9292      2.00000
      5       8.8811      0.00000
      6       9.5270      0.00000
      7      10.4230      0.00000
      8      13.0720      0.00000

 k-point   424 :      -0.4000    0.3200    0.1600
  band No.  band energies     occupation 
      1      -3.7942      2.00000
      2      -1.3078      2.00000
      3       1.4980      2.00000
      4       2.8169      2.00000
      5       8.9701      0.00000
      6       9.3689      0.00000
      7      11.1028      0.00000
      8      13.1265      0.00000

 k-point   425 :      -0.3600    0.3200    0.1600
  band No.  band energies     occupation 
      1      -3.6133      2.00000
      2      -1.5285      2.00000
      3       1.4586      2.00000
      4       2.7580      2.00000
      5       9.0504      0.00000
      6       9.2433      0.00000
      7      11.8504      0.00000
      8      12.7827      0.00000

 k-point   426 :      -0.4800    0.3600    0.1600
  band No.  band energies     occupation 
      1      -4.2548      2.00000
      2      -0.6473      2.00000
      3       1.7961      2.00000
      4       2.8051      2.00000
      5       8.3634      0.00000
      6       9.1459      0.00000
      7      10.4948      0.00000
      8      13.5078      0.00000

 k-point   427 :      -0.4400    0.3600    0.1600
  band No.  band energies     occupation 
      1      -3.9435      2.00000
      2      -1.0087      2.00000
      3       1.5964      2.00000
      4       2.6342      2.00000
      5       8.6214      0.00000
      6       9.4851      0.00000
      7      10.3332      0.00000
      8      13.8150      0.00000

 k-point   428 :      -0.4000    0.3600    0.1600
  band No.  band energies     occupation 
      1      -3.6465      2.00000
      2      -1.3481      2.00000
      3       1.4483      2.00000
      4       2.5171      2.00000
      5       8.7443      0.00000
      6       9.9004      0.00000
      7      10.3622      0.00000
      8      13.7120      0.00000

 k-point   429 :      -0.3600    0.3600    0.1600
  band No.  band energies     occupation 
      1      -3.4207      2.00000
      2      -1.5998      2.00000
      3       1.3457      2.00000
      4       2.4658      2.00000
      5       8.8470      0.00000
      6       9.8791      0.00000
      7      10.9638      0.00000
      8      12.8259      0.00000

 k-point   430 :      -0.3200    0.3600    0.1600
  band No.  band energies     occupation 
      1      -3.3611      2.00000
      2      -1.6640      2.00000
      3       1.2886      2.00000
      4       2.4830      2.00000
      5       8.9674      0.00000
      6       9.7635      0.00000
      7      11.6391      0.00000
      8      12.0971      0.00000

 k-point   431 :      -0.2800    0.3600    0.1600
  band No.  band energies     occupation 
      1      -3.5049      2.00000
      2      -1.5043      2.00000
      3       1.2843      2.00000
      4       2.5639      2.00000
      5       9.1130      0.00000
      6       9.6481      0.00000
      7      11.1249      0.00000
      8      12.6875      0.00000

 k-point   432 :      -0.2400    0.3600    0.1600
  band No.  band energies     occupation 
      1      -3.7702      2.00000
      2      -1.2099      2.00000
      3       1.3462      2.00000
      4       2.6998      2.00000
      5       9.2804      0.00000
      6       9.5086      0.00000
      7      10.4640      0.00000
      8      13.5608      0.00000

 k-point   433 :      -0.2000    0.3600    0.1600
  band No.  band energies     occupation 
      1      -4.0762      2.00000
      2      -0.8747      2.00000
      3       1.4909      2.00000
      4       2.8786      2.00000
      5       9.2117      0.00000
      6       9.4751      0.00000
      7      10.0451      0.00000
      8      13.4395      0.00000

 k-point   434 :      -0.4400    0.4000    0.1600
  band No.  band energies     occupation 
      1      -3.7839      2.00000
      2      -1.1609      2.00000
      3       1.7019      2.00000
      4       2.4094      2.00000
      5       8.2909      0.00000
      6       8.8326      0.00000
      7      11.0897      0.00000
      8      14.3753      0.00000

 k-point   435 :      -0.4000    0.4000    0.1600
  band No.  band energies     occupation 
      1      -3.4760      2.00000
      2      -1.4797      2.00000
      3       1.5264      2.00000
      4       2.2628      2.00000
      5       8.5339      0.00000
      6       9.2726      0.00000
      7      10.9185      0.00000
      8      13.8183      0.00000

 k-point   436 :      -0.3600    0.4000    0.1600
  band No.  band energies     occupation 
      1      -3.2139      2.00000
      2      -1.7451      2.00000
      3       1.3674      2.00000
      4       2.2091      2.00000
      5       8.6502      0.00000
      6       9.9208      0.00000
      7      10.7966      0.00000
      8      12.9119      0.00000

 k-point   437 :      -0.3200    0.4000    0.1600
  band No.  band energies     occupation 
      1      -3.0993      2.00000
      2      -1.8569      2.00000
      3       1.2463      2.00000
      4       2.2404      2.00000
      5       8.7711      0.00000
      6      10.3662      0.00000
      7      10.9755      0.00000
      8      12.0640      0.00000

 k-point   438 :      -0.2800    0.4000    0.1600
  band No.  band energies     occupation 
      1      -3.2131      2.00000
      2      -1.7390      2.00000
      3       1.1885      2.00000
      4       2.3415      2.00000
      5       8.9187      0.00000
      6      10.3187      0.00000
      7      11.1786      0.00000
      8      11.8202      0.00000

 k-point   439 :      -0.2400    0.4000    0.1600
  band No.  band energies     occupation 
      1      -3.4694      2.00000
      2      -1.4870      2.00000
      3       1.2162      2.00000
      4       2.4988      2.00000
      5       9.0939      0.00000
      6      10.0500      0.00000
      7      10.6551      0.00000
      8      12.6569      0.00000

 k-point   440 :      -0.4000    0.4400    0.1600
  band No.  band energies     occupation 
      1      -3.2828      2.00000
      2      -1.6888      2.00000
      3       1.6793      2.00000
      4       2.0962      2.00000
      5       8.2734      0.00000
      6       8.5915      0.00000
      7      11.7373      0.00000
      8      13.9496      0.00000

 k-point   441 :      -0.3600    0.4400    0.1600
  band No.  band energies     occupation 
      1      -2.9927      2.00000
      2      -1.9618      2.00000
      3       1.5159      2.00000
      4       2.0000      2.00000
      5       8.4835      0.00000
      6       9.1387      0.00000
      7      11.5688      0.00000
      8      13.0294      0.00000

 k-point   442 :      -0.3200    0.4400    0.1600
  band No.  band energies     occupation 
      1      -2.8331      2.00000
      2      -2.1042      2.00000
      3       1.3334      2.00000
      4       2.0416      2.00000
      5       8.6024      0.00000
      6       9.8730      0.00000
      7      11.4268      0.00000
      8      12.1552      0.00000

 k-point   443 :      -0.2800    0.4400    0.1600
  band No.  band energies     occupation 
      1      -2.9510      2.00000
      2      -1.9808      2.00000
      3       1.2110      2.00000
      4       2.1632      2.00000
      5       8.7456      0.00000
      6      10.5449      0.00000
      7      11.3421      0.00000
      8      11.4307      0.00000

 k-point   444 :      -0.3600    0.4800    0.1600
  band No.  band energies     occupation 
      1      -2.7599      2.00000
      2      -2.2250      2.00000
      3       1.7340      2.00000
      4       1.8714      2.00000
      5       8.3152      0.00000
      6       8.4201      0.00000
      7      12.4336      0.00000
      8      13.1740      0.00000

 k-point   445 :      -0.3200    0.4800    0.1600
  band No.  band energies     occupation 
      1      -2.6004      2.00000
      2      -2.3532      2.00000
      3       1.5280      2.00000
      4       1.8956      2.00000
      5       8.4672      0.00000
      6       9.0932      0.00000
      7      12.2289      0.00000
      8      12.3222      0.00000

 k-point   446 :      -0.4000    0.4000    0.2000
  band No.  band energies     occupation 
      1      -3.6345      2.00000
      2      -1.3109      2.00000
      3       1.4255      2.00000
      4       2.4211      2.00000
      5       9.1420      0.00000
      6       9.5604      0.00000
      7      10.2025      0.00000
      8      13.6884      0.00000

 k-point   447 :      -0.3600    0.4000    0.2000
  band No.  band energies     occupation 
      1      -3.3446      2.00000
      2      -1.6010      2.00000
      3       1.3211      2.00000
      4       2.2631      2.00000
      5       9.3724      0.00000
      6       9.7655      0.00000
      7      10.3614      0.00000
      8      12.7696      0.00000

 k-point   448 :      -0.3200    0.4000    0.2000
  band No.  band energies     occupation 
      1      -3.1428      2.00000
      2      -1.8048      2.00000
      3       1.2732      2.00000
      4       2.1789      2.00000
      5       9.4369      0.00000
      6       9.7606      0.00000
      7      10.9882      0.00000
      8      11.9203      0.00000

 k-point   449 :      -0.3600    0.4400    0.2000
  band No.  band energies     occupation 
      1      -3.1718      2.00000
      2      -1.7608      2.00000
      3       1.4412      2.00000
      4       2.0369      2.00000
      5       9.1222      0.00000
      6       9.3900      0.00000
      7      10.7535      0.00000
      8      12.8844      0.00000

 k-point   450 :      -0.3200    0.4400    0.2000
  band No.  band energies     occupation 
      1      -2.9191      2.00000
      2      -1.9970      2.00000
      3       1.3712      2.00000
      4       1.9198      2.00000
      5       9.3287      0.00000
      6       9.9369      0.00000
      7      10.6648      0.00000
      8      11.9953      0.00000

 k-point   451 :      -0.2800    0.4400    0.2000
  band No.  band energies     occupation 
      1      -2.8626      2.00000
      2      -2.0472      2.00000
      3       1.3067      2.00000
      4       1.9359      2.00000
      5       9.4466      0.00000
      6      10.2296      0.00000
      7      10.9084      0.00000
      8      11.2866      0.00000

 k-point   452 :      -0.2400    0.4400    0.2000
  band No.  band energies     occupation 
      1      -3.0577      2.00000
      2      -1.8603      2.00000
      3       1.2789      2.00000
      4       2.0611      2.00000
      5       9.5734      0.00000
      6      10.0168      0.00000
      7      10.5180      0.00000
      8      11.8775      0.00000

 k-point   453 :      -0.3200    0.4800    0.2000
  band No.  band energies     occupation 
      1      -2.6983      2.00000
      2      -2.2249      2.00000
      3       1.5450      2.00000
      4       1.7430      2.00000
      5       9.1562      0.00000
      6       9.2461      0.00000
      7      11.4048      0.00000
      8      12.1192      0.00000

 k-point   454 :      -0.2800    0.4800    0.2000
  band No.  band energies     occupation 
      1      -2.6137      2.00000
      2      -2.2910      2.00000
      3       1.4339      2.00000
      4       1.7567      2.00000
      5       9.3128      0.00000
      6       9.9393      0.00000
      7      11.2541      0.00000
      8      11.3047      0.00000

 k-point   455 :      -0.2800    0.4800    0.2400
  band No.  band energies     occupation 
      1      -2.6471      2.00000
      2      -2.2465      2.00000
      3       1.4401      2.00000
      4       1.7026      2.00000
      5       9.9301      0.00000
      6      10.0065      0.00000
      7      10.6422      0.00000
      8      11.1709      0.00000


--------------------------------------------------------------------------------------------------------


 soft charge-density along one line, spin component           1
         0         1         2         3         4         5         6         7         8         9
 total charge-density along one line
 
 pseudopotential strength for first ion, spin component:           1
 18.243  25.451   0.000   0.000   0.000   0.000   0.000   0.000
 25.451  35.511   0.000   0.000   0.000   0.000   0.000   0.000
  0.000   0.000   4.162   0.000   0.000   7.757   0.000   0.000
  0.000   0.000   0.000   4.162   0.000   0.000   7.757   0.000
  0.000   0.000   0.000   0.000   4.162   0.000   0.000   7.757
  0.000   0.000   7.757   0.000   0.000  14.468   0.000   0.000
  0.000   0.000   0.000   7.757   0.000   0.000  14.468   0.000
  0.000   0.000   0.000   0.000   7.757   0.000   0.000  14.468
 total augmentation occupancy for first ion, spin component:           1
  8.858  -3.928   0.000   0.000   0.000   0.000   0.000   0.000
 -3.928   1.808   0.000   0.000   0.000   0.000   0.000   0.000
  0.000   0.000   3.925   0.000   0.000  -1.057   0.000   0.000
  0.000   0.000  -0.000   3.925   0.000  -0.000  -1.057   0.000
  0.000   0.000  -0.000  -0.000   3.925  -0.000  -0.000  -1.057
  0.000   0.000  -1.057   0.000   0.000   0.290  -0.000   0.000
  0.000  -0.000   0.000  -1.057  -0.000   0.000   0.290   0.000
  0.000  -0.000   0.000   0.000  -1.057   0.000   0.000   0.290


------------------------ aborting loop because EDIFF is reached ----------------------------------------


 


 total charge     
 
# of ion       s       p       d       tot
------------------------------------------
    1        0.745   0.946   0.000   1.691
    2        0.745   0.946   0.000   1.691
--------------------------------------------------
tot          1.490   1.892   0.000   3.382
 
    CHARGE:  cpu time    0.0571: real time    0.0572
    FORLOC:  cpu time    0.0006: real time    0.0006
    FORNL :  cpu time    0.1224: real time    0.1224
    STRESS:  cpu time    8.4073: real time    8.4076
    FORCOR:  cpu time    0.0463: real time    0.0464
    FORHAR:  cpu time    0.0025: real time    0.0025
    MIXING:  cpu time    0.0026: real time    0.0026
    OFIELD:  cpu time    0.0000: real time    0.0000

  FORCE on cell =-STRESS in cart. coord.  units (eV):
  Direction    XX          YY          ZZ          XY          YZ          ZX
  --------------------------------------------------------------------------------------
  Alpha Z     3.27267     3.27267     3.27267
  Ewald     -75.49093   -75.49093   -75.49093    -0.00000    -0.00000     0.00000
  Hartree     5.08717     5.08717     5.08717     0.00000     0.00000     0.00000
  E(xc)     -24.27372   -24.42329   -24.37187     0.10528    -0.00823     0.04367
  Local     -29.29555   -29.29555   -29.29555     0.00000     0.00000     0.00000
  n-local    75.77246    77.33898    71.71942     2.16070    -1.27254     0.50071
  augment   -10.57655   -10.57655   -10.57655    -0.00000    -0.00000    -0.00000
  Kinetic    58.07667    55.44101    54.13890     3.49938    -0.79139     1.08954
  Fock        0.00000     0.00000     0.00000     0.00000     0.00000     0.00000
  -------------------------------------------------------------------------------------
  Total      -0.53033    -0.53033    -0.53033     0.00000     0.00000    -0.00000
  in kB     -20.65124   -20.65124   -20.65124     0.00000     0.00000    -0.00000
  external pressure =      -20.65 kB  Pullay stress =        0.00 kB


 VOLUME and BASIS-vectors are now :
 -----------------------------------------------------------------------------
  energy-cutoff  :      800.00
  volume of cell :       41.14
      direct lattice vectors                 reciprocal lattice vectors
     0.000000000  2.740065503  2.740065503    -0.182477390  0.182477390  0.182477390
     2.740065503  0.000000000  2.740065503     0.182477390 -0.182477390  0.182477390
     2.740065503  2.740065503  0.000000000     0.182477390  0.182477390 -0.182477390

  length of vectors
     3.875037796  3.875037796  3.875037796     0.316060110  0.316060110  0.316060110


 FORCES acting on ions
    electron-ion (+dipol)            ewald-force                    non-local-force                 convergence-correction
 -----------------------------------------------------------------------------------------------
   0.710E-07 0.710E-07 0.676E-07   -.862E-15 0.662E-15 -.460E-15   -.198E-15 0.208E-16 0.416E-16   -.652E-10 -.652E-10 -.652E-10
   -.710E-07 -.710E-07 -.676E-07   0.965E-15 -.837E-15 0.821E-15   0.142E-15 -.312E-16 -.971E-16   0.652E-10 0.652E-10 0.652E-10
 -----------------------------------------------------------------------------------------------
   -.637E-13 0.150E-12 0.110E-12   0.103E-15 -.175E-15 0.362E-15   -.555E-16 -.104E-16 -.555E-16   -.209E-14 -.282E-14 -.348E-14
 
 
 POSITION                                       TOTAL-FORCE (eV/Angst)
 -----------------------------------------------------------------------------------
      4.79511      4.79511      4.79511        -0.000000     -0.000000     -0.000000
      0.68502      0.68502      0.68502         0.000000      0.000000      0.000000
 -----------------------------------------------------------------------------------
    total drift:                               -0.000000      0.000000      0.000000


--------------------------------------------------------------------------------------------------------



  FREE ENERGIE OF THE ION-ELECTRON SYSTEM (eV)
  ---------------------------------------------------
  free  energy   TOTEN  =       -17.54435436 eV

  energy  without entropy=      -17.54435436  energy(sigma->0) =      -17.54435436
 


--------------------------------------------------------------------------------------------------------


    POTLOK:  cpu time    0.3815: real time    0.3815


--------------------------------------------------------------------------------------------------------


     LOOP+:  cpu time   58.3470: real time   58.4303
    4ORBIT:  cpu time    0.0000: real time    0.0000
 


 total charge     
 
# of ion       s       p       d       tot
------------------------------------------
    1        0.745   0.946   0.000   1.691
    2        0.745   0.946   0.000   1.691
--------------------------------------------------
tot          1.490   1.892   0.000   3.382
 
 BZINTS: Fermi energy:    5.463863;    8.000000 electrons
         Band energy: 0.203789E+01;  BLOECHL correction:   -0.000000

 total amount of memory used by VASP MPI-rank0    47520. kBytes
=======================================================================

   base      :      30000. kBytes
   nonl-proj :       6296. kBytes
   fftplans  :       3140. kBytes
   grid      :       1559. kBytes
   one-center:          3. kBytes
   wavefun   :       6522. kBytes
 
  
  
 General timing and accounting informations for this job:
 ========================================================
  
                  Total CPU time used (sec):       60.708
                            User time (sec):       60.483
                          System time (sec):        0.225
                         Elapsed time (sec):       61.115
  
                   Maximum memory used (kb):      132832.
                   Average memory used (kb):           0.
  
                          Minor page faults:        44730
                          Major page faults:            8
                 Voluntary context switches:         1660
