 vasp.6.1.2 22Jul20 (build Mar 11 2021 17:42:27) complex                        
  
 executed on             LinuxIFC date 2021.03.11  17:54:43
 running on   40 total cores
 distrk:  each k-point on   20 cores,    2 groups
 distr:  one band on NCORE=  10 cores,    2 groups


--------------------------------------------------------------------------------------------------------


 INCAR:
 POTCAR:    PAW_PBE Si 05Jan2001                  
 POTCAR:    PAW_PBE Si 05Jan2001                  
   VRHFIN =Si: s2p2                                                                                 
   LEXCH  = PE                                                                                      
   EATOM  =   103.0669 eV,    7.5752 Ry                                                             
                                                                                                    
   TITEL  = PAW_PBE Si 05Jan2001                                                                    
   LULTRA =        F    use ultrasoft PP ?                                                          
   IUNSCR =        1    unscreen: 0-lin 1-nonlin 2-no                                               
   RPACOR =    1.500    partial core radius                                                         
   POMASS =   28.085; ZVAL   =    4.000    mass and valenz                                          
   RCORE  =    1.900    outmost cutoff radius                                                       
   RWIGS  =    2.480; RWIGS  =    1.312    wigner-seitz radius (au A)                               
   ENMAX  =  245.345; ENMIN  =  184.009 eV                                                          
   ICORE  =        2    local potential                                                             
   LCOR   =        T    correct aug charges                                                         
   LPAW   =        T    paw PP                                                                      
   EAUG   =  322.069                                                                                
   DEXC   =    0.000                                                                                
   RMAX   =    1.950    core radius for proj-oper                                                   
   RAUG   =    1.300    factor for augmentation sphere                                              
   RDEP   =    1.993    radius for radial grids                                                     
   RDEPT  =    1.837    core radius for aug-charge                                                  
                                                                                                    
   Atomic configuration                                                                             
    6 entries                                                                                       
     n  l   j            E        occ.                                                              
     1  0  0.50     -1785.8828   2.0000                                                             
     2  0  0.50      -139.4969   2.0000                                                             
     2  1  1.50       -95.5546   6.0000                                                             
     3  0  0.50       -10.8127   2.0000                                                             
     3  1  0.50        -4.0811   2.0000                                                             
     3  2  1.50        -4.0817   0.0000                                                             
   Description                                                                                      
     l       E           TYP  RCUT    TYP  RCUT                                                     
     0    -10.8127223     23  1.900                                                                 
     0     -7.6451159     23  1.900                                                                 
     1     -4.0811372     23  1.900                                                                 
     1      2.4879257     23  1.900                                                                 
     2     -4.0817478      7  1.900                                                                 
  local pseudopotential read in
  partial core-charges read in
  partial kinetic energy density read in
  atomic valenz-charges read in
  non local Contribution for L=           0  read in
    real space projection operators read in
  non local Contribution for L=           0  read in
    real space projection operators read in
  non local Contribution for L=           1  read in
    real space projection operators read in
  non local Contribution for L=           1  read in
    real space projection operators read in
    PAW grid and wavefunctions read in
 
   number of l-projection  operators is LMAX  =           4
   number of lm-projection operators is LMMAX =           8
 
  PAW_PBE Si 05Jan2001                  :
 energy of atom  1       EATOM= -103.0669
 kinetic energy error for atom=    0.0002 (will be added to EATOM!!)
 
 
 POSCAR: Unknown
  positions in direct lattice
  No initial velocities read in

 METAGGA = R2SCA    LMAXTAU =  6    LMIXTAU =  T

 exchange correlation table for  LEXCH =        8
   RHO(1)=    0.500       N(1)  =     2000
   RHO(2)=  100.500       N(2)  =     4000
 


--------------------------------------------------------------------------------------------------------


 ion  position               nearest neighbor table
   1  0.875  0.875  0.875-   2 2.48   2 2.48   2 2.48   2 2.48
   2  0.125  0.125  0.125-   1 2.48   1 2.48   1 2.48   1 2.48
 
  LATTYP: Found a face centered cubic cell.
 ALAT       =     5.7300000000
  
  Lattice vectors:
  
 A1 = (   0.0000000000,   2.8650000000,   2.8650000000)
 A2 = (   2.8650000000,   0.0000000000,   2.8650000000)
 A3 = (   2.8650000000,   2.8650000000,   0.0000000000)


Analysis of symmetry for initial positions (statically):
=====================================================================
 Subroutine PRICEL returns:
 Original cell was already a primitive cell.
 

 Routine SETGRP: Setting up the symmetry group for a 
 face centered cubic supercell.


 Subroutine GETGRP returns: Found 48 space group operations
 (whereof 12 operations were pure point group operations)
 out of a pool of 48 trial point group operations.


The static configuration has the point symmetry D_3d.
 The point group associated with its full space group is O_h .


Analysis of symmetry for dynamics (positions and initial velocities):
=====================================================================
 Subroutine PRICEL returns:
 Original cell was already a primitive cell.
 

 Routine SETGRP: Setting up the symmetry group for a 
 face centered cubic supercell.


 Subroutine GETGRP returns: Found 48 space group operations
 (whereof 12 operations were pure point group operations)
 out of a pool of 48 trial point group operations.


The dynamic configuration has the point symmetry D_3d.
 The point group associated with its full space group is O_h .


 Subroutine INISYM returns: Found 48 space group operations
 (whereof 12 operations are pure point group operations),
 and found     1 'primitive' translations


----------------------------------------------------------------------------------------

                                     Primitive cell                                     

  volume of cell :      47.0331

  direct lattice vectors                    reciprocal lattice vectors
     0.000000000  2.865000000  2.865000000    -0.174520070  0.174520070  0.174520070
     2.865000000  0.000000000  2.865000000     0.174520070 -0.174520070  0.174520070
     2.865000000  2.865000000  0.000000000     0.174520070  0.174520070 -0.174520070

  length of vectors
     4.051721856  4.051721856  4.051721856     0.302277628  0.302277628  0.302277628

  position of ions in fractional coordinates (direct lattice)
     0.875000000  0.875000000  0.875000000
     0.125000000  0.125000000  0.125000000

  ion indices of the primitive-cell ions
   primitive index   ion index
                 1           1
                 2           2

----------------------------------------------------------------------------------------

 
 

Automatic generation of k-mesh.
 generate k-points for:   24   24   24
Space group operators:
 irot       det(A)        alpha          n_x          n_y          n_z        tau_x        tau_y        tau_z
    1     1.000000     0.000000     1.000000     0.000000     0.000000     0.000000     0.000000     0.000000
    2    -1.000000     0.000000     1.000000     0.000000     0.000000     0.000000     0.000000     0.000000
    3     1.000000   120.000000    -0.577350    -0.577350    -0.577350     0.000000     0.000000     0.000000
    4    -1.000000   120.000000    -0.577350    -0.577350    -0.577350     0.000000     0.000000     0.000000
    5     1.000000   120.000000     0.577350     0.577350     0.577350     0.000000     0.000000     0.000000
    6    -1.000000   120.000000     0.577350     0.577350     0.577350     0.000000     0.000000     0.000000
    7     1.000000   180.000000     0.000000    -0.707107     0.707107     0.000000     0.000000     0.000000
    8    -1.000000   180.000000     0.000000    -0.707107     0.707107     0.000000     0.000000     0.000000
    9     1.000000   180.000000     0.707107    -0.707107     0.000000     0.000000     0.000000     0.000000
   10    -1.000000   180.000000     0.707107    -0.707107     0.000000     0.000000     0.000000     0.000000
   11     1.000000   180.000000     0.707107     0.000000    -0.707107     0.000000     0.000000     0.000000
   12    -1.000000   180.000000     0.707107     0.000000    -0.707107     0.000000     0.000000     0.000000
   13     1.000000    90.000000     0.000000     0.000000    -1.000000    -0.500000     0.000000     0.000000
   14    -1.000000    90.000000     0.000000     0.000000    -1.000000    -0.500000     0.000000     0.000000
   15     1.000000   180.000000     0.000000     0.707107     0.707107    -0.500000     0.000000     0.000000
   16    -1.000000   180.000000     0.000000     0.707107     0.707107    -0.500000     0.000000     0.000000
   17     1.000000    90.000000     0.000000     1.000000     0.000000    -0.500000     0.000000     0.000000
   18    -1.000000    90.000000     0.000000     1.000000     0.000000    -0.500000     0.000000     0.000000
   19     1.000000   180.000000     0.000000     0.000000     1.000000     0.000000     0.000000    -0.500000
   20    -1.000000   180.000000     0.000000     0.000000     1.000000     0.000000     0.000000    -0.500000
   21     1.000000   120.000000    -0.577350     0.577350     0.577350     0.000000     0.000000    -0.500000
   22    -1.000000   120.000000    -0.577350     0.577350     0.577350     0.000000     0.000000    -0.500000
   23     1.000000   120.000000    -0.577350     0.577350    -0.577350     0.000000     0.000000    -0.500000
   24    -1.000000   120.000000    -0.577350     0.577350    -0.577350     0.000000     0.000000    -0.500000
   25     1.000000    90.000000     0.000000     0.000000     1.000000     0.000000    -0.500000     0.000000
   26    -1.000000    90.000000     0.000000     0.000000     1.000000     0.000000    -0.500000     0.000000
   27     1.000000    90.000000    -1.000000     0.000000     0.000000     0.000000    -0.500000     0.000000
   28    -1.000000    90.000000    -1.000000     0.000000     0.000000     0.000000    -0.500000     0.000000
   29     1.000000   180.000000     0.707107     0.000000     0.707107     0.000000    -0.500000     0.000000
   30    -1.000000   180.000000     0.707107     0.000000     0.707107     0.000000    -0.500000     0.000000
   31     1.000000   120.000000     0.577350    -0.577350     0.577350    -0.500000     0.000000     0.000000
   32    -1.000000   120.000000     0.577350    -0.577350     0.577350    -0.500000     0.000000     0.000000
   33     1.000000   120.000000    -0.577350    -0.577350     0.577350    -0.500000     0.000000     0.000000
   34    -1.000000   120.000000    -0.577350    -0.577350     0.577350    -0.500000     0.000000     0.000000
   35     1.000000   180.000000     1.000000     0.000000     0.000000    -0.500000     0.000000     0.000000
   36    -1.000000   180.000000     1.000000     0.000000     0.000000    -0.500000     0.000000     0.000000
   37     1.000000    90.000000     0.000000    -1.000000     0.000000     0.000000     0.000000    -0.500000
   38    -1.000000    90.000000     0.000000    -1.000000     0.000000     0.000000     0.000000    -0.500000
   39     1.000000   180.000000     0.707107     0.707107     0.000000     0.000000     0.000000    -0.500000
   40    -1.000000   180.000000     0.707107     0.707107     0.000000     0.000000     0.000000    -0.500000
   41     1.000000    90.000000     1.000000     0.000000     0.000000     0.000000     0.000000    -0.500000
   42    -1.000000    90.000000     1.000000     0.000000     0.000000     0.000000     0.000000    -0.500000
   43     1.000000   120.000000     0.577350    -0.577350    -0.577350     0.000000    -0.500000     0.000000
   44    -1.000000   120.000000     0.577350    -0.577350    -0.577350     0.000000    -0.500000     0.000000
   45     1.000000   180.000000     0.000000     1.000000     0.000000     0.000000    -0.500000     0.000000
   46    -1.000000   180.000000     0.000000     1.000000     0.000000     0.000000    -0.500000     0.000000
   47     1.000000   120.000000     0.577350     0.577350    -0.577350     0.000000    -0.500000     0.000000
   48    -1.000000   120.000000     0.577350     0.577350    -0.577350     0.000000    -0.500000     0.000000
 TETIRR: Found   1864 inequivalent tetrahedra from    82944
 
 Subroutine IBZKPT returns following result:
 ===========================================
 
 Found    413 irreducible k-points:
 
 Following reciprocal coordinates:
            Coordinates               Weight
  0.000000  0.000000  0.000000      1.000000
  0.041667  0.000000  0.000000      8.000000
  0.083333  0.000000  0.000000      8.000000
  0.125000  0.000000  0.000000      8.000000
  0.166667  0.000000  0.000000      8.000000
  0.208333  0.000000  0.000000      8.000000
  0.250000  0.000000  0.000000      8.000000
  0.291667  0.000000  0.000000      8.000000
  0.333333  0.000000  0.000000      8.000000
  0.375000  0.000000  0.000000      8.000000
  0.416667  0.000000  0.000000      8.000000
  0.458333  0.000000  0.000000      8.000000
  0.500000  0.000000  0.000000      4.000000
  0.041667  0.041667  0.000000      6.000000
  0.083333  0.041667  0.000000     24.000000
  0.125000  0.041667  0.000000     24.000000
  0.166667  0.041667  0.000000     24.000000
  0.208333  0.041667  0.000000     24.000000
  0.250000  0.041667  0.000000     24.000000
  0.291667  0.041667  0.000000     24.000000
  0.333333  0.041667  0.000000     24.000000
  0.375000  0.041667  0.000000     24.000000
  0.416667  0.041667  0.000000     24.000000
  0.458333  0.041667  0.000000     24.000000
  0.500000  0.041667  0.000000     24.000000
 -0.458333  0.041667  0.000000     24.000000
 -0.416667  0.041667  0.000000     24.000000
 -0.375000  0.041667  0.000000     24.000000
 -0.333333  0.041667  0.000000     24.000000
 -0.291667  0.041667  0.000000     24.000000
 -0.250000  0.041667  0.000000     24.000000
 -0.208333  0.041667  0.000000     24.000000
 -0.166667  0.041667  0.000000     24.000000
 -0.125000  0.041667  0.000000     24.000000
 -0.083333  0.041667  0.000000     24.000000
 -0.041667  0.041667  0.000000     12.000000
  0.083333  0.083333  0.000000      6.000000
  0.125000  0.083333  0.000000     24.000000
  0.166667  0.083333  0.000000     24.000000
  0.208333  0.083333  0.000000     24.000000
  0.250000  0.083333  0.000000     24.000000
  0.291667  0.083333  0.000000     24.000000
  0.333333  0.083333  0.000000     24.000000
  0.375000  0.083333  0.000000     24.000000
  0.416667  0.083333  0.000000     24.000000
  0.458333  0.083333  0.000000     24.000000
  0.500000  0.083333  0.000000     24.000000
 -0.458333  0.083333  0.000000     24.000000
 -0.416667  0.083333  0.000000     24.000000
 -0.375000  0.083333  0.000000     24.000000
 -0.333333  0.083333  0.000000     24.000000
 -0.291667  0.083333  0.000000     24.000000
 -0.250000  0.083333  0.000000     24.000000
 -0.208333  0.083333  0.000000     24.000000
 -0.166667  0.083333  0.000000     24.000000
 -0.125000  0.083333  0.000000     24.000000
 -0.083333  0.083333  0.000000     12.000000
  0.125000  0.125000  0.000000      6.000000
  0.166667  0.125000  0.000000     24.000000
  0.208333  0.125000  0.000000     24.000000
  0.250000  0.125000  0.000000     24.000000
  0.291667  0.125000  0.000000     24.000000
  0.333333  0.125000  0.000000     24.000000
  0.375000  0.125000  0.000000     24.000000
  0.416667  0.125000  0.000000     24.000000
  0.458333  0.125000  0.000000     24.000000
  0.500000  0.125000  0.000000     24.000000
 -0.458333  0.125000  0.000000     24.000000
 -0.416667  0.125000  0.000000     24.000000
 -0.375000  0.125000  0.000000     24.000000
 -0.333333  0.125000  0.000000     24.000000
 -0.291667  0.125000  0.000000     24.000000
 -0.250000  0.125000  0.000000     24.000000
 -0.208333  0.125000  0.000000     24.000000
 -0.166667  0.125000  0.000000     24.000000
 -0.125000  0.125000  0.000000     12.000000
  0.166667  0.166667  0.000000      6.000000
  0.208333  0.166667  0.000000     24.000000
  0.250000  0.166667  0.000000     24.000000
  0.291667  0.166667  0.000000     24.000000
  0.333333  0.166667  0.000000     24.000000
  0.375000  0.166667  0.000000     24.000000
  0.416667  0.166667  0.000000     24.000000
  0.458333  0.166667  0.000000     24.000000
  0.500000  0.166667  0.000000     24.000000
 -0.458333  0.166667  0.000000     24.000000
 -0.416667  0.166667  0.000000     24.000000
 -0.375000  0.166667  0.000000     24.000000
 -0.333333  0.166667  0.000000     24.000000
 -0.291667  0.166667  0.000000     24.000000
 -0.250000  0.166667  0.000000     24.000000
 -0.208333  0.166667  0.000000     24.000000
 -0.166667  0.166667  0.000000     12.000000
  0.208333  0.208333  0.000000      6.000000
  0.250000  0.208333  0.000000     24.000000
  0.291667  0.208333  0.000000     24.000000
  0.333333  0.208333  0.000000     24.000000
  0.375000  0.208333  0.000000     24.000000
  0.416667  0.208333  0.000000     24.000000
  0.458333  0.208333  0.000000     24.000000
  0.500000  0.208333  0.000000     24.000000
 -0.458333  0.208333  0.000000     24.000000
 -0.416667  0.208333  0.000000     24.000000
 -0.375000  0.208333  0.000000     24.000000
 -0.333333  0.208333  0.000000     24.000000
 -0.291667  0.208333  0.000000     24.000000
 -0.250000  0.208333  0.000000     24.000000
 -0.208333  0.208333  0.000000     12.000000
  0.250000  0.250000  0.000000      6.000000
  0.291667  0.250000  0.000000     24.000000
  0.333333  0.250000  0.000000     24.000000
  0.375000  0.250000  0.000000     24.000000
  0.416667  0.250000  0.000000     24.000000
  0.458333  0.250000  0.000000     24.000000
  0.500000  0.250000  0.000000     24.000000
 -0.458333  0.250000  0.000000     24.000000
 -0.416667  0.250000  0.000000     24.000000
 -0.375000  0.250000  0.000000     24.000000
 -0.333333  0.250000  0.000000     24.000000
 -0.291667  0.250000  0.000000     24.000000
 -0.250000  0.250000  0.000000     12.000000
  0.291667  0.291667  0.000000      6.000000
  0.333333  0.291667  0.000000     24.000000
  0.375000  0.291667  0.000000     24.000000
  0.416667  0.291667  0.000000     24.000000
  0.458333  0.291667  0.000000     24.000000
  0.500000  0.291667  0.000000     24.000000
 -0.458333  0.291667  0.000000     24.000000
 -0.416667  0.291667  0.000000     24.000000
 -0.375000  0.291667  0.000000     24.000000
 -0.333333  0.291667  0.000000     24.000000
 -0.291667  0.291667  0.000000     12.000000
  0.333333  0.333333  0.000000      6.000000
  0.375000  0.333333  0.000000     24.000000
  0.416667  0.333333  0.000000     24.000000
  0.458333  0.333333  0.000000     24.000000
  0.500000  0.333333  0.000000     24.000000
 -0.458333  0.333333  0.000000     24.000000
 -0.416667  0.333333  0.000000     24.000000
 -0.375000  0.333333  0.000000     24.000000
 -0.333333  0.333333  0.000000     12.000000
  0.375000  0.375000  0.000000      6.000000
  0.416667  0.375000  0.000000     24.000000
  0.458333  0.375000  0.000000     24.000000
  0.500000  0.375000  0.000000     24.000000
 -0.458333  0.375000  0.000000     24.000000
 -0.416667  0.375000  0.000000     24.000000
 -0.375000  0.375000  0.000000     12.000000
  0.416667  0.416667  0.000000      6.000000
  0.458333  0.416667  0.000000     24.000000
  0.500000  0.416667  0.000000     24.000000
 -0.458333  0.416667  0.000000     24.000000
 -0.416667  0.416667  0.000000     12.000000
  0.458333  0.458333  0.000000      6.000000
  0.500000  0.458333  0.000000     24.000000
 -0.458333  0.458333  0.000000     12.000000
  0.500000  0.500000  0.000000      3.000000
  0.125000  0.083333  0.041667     24.000000
  0.166667  0.083333  0.041667     48.000000
  0.208333  0.083333  0.041667     48.000000
  0.250000  0.083333  0.041667     48.000000
  0.291667  0.083333  0.041667     48.000000
  0.333333  0.083333  0.041667     48.000000
  0.375000  0.083333  0.041667     48.000000
  0.416667  0.083333  0.041667     48.000000
  0.458333  0.083333  0.041667     48.000000
  0.500000  0.083333  0.041667     48.000000
 -0.458333  0.083333  0.041667     24.000000
  0.166667  0.125000  0.041667     24.000000
  0.208333  0.125000  0.041667     48.000000
  0.250000  0.125000  0.041667     48.000000
  0.291667  0.125000  0.041667     48.000000
  0.333333  0.125000  0.041667     48.000000
  0.375000  0.125000  0.041667     48.000000
  0.416667  0.125000  0.041667     48.000000
  0.458333  0.125000  0.041667     48.000000
  0.500000  0.125000  0.041667     48.000000
 -0.458333  0.125000  0.041667     48.000000
 -0.416667  0.125000  0.041667     48.000000
 -0.375000  0.125000  0.041667     48.000000
 -0.333333  0.125000  0.041667     48.000000
 -0.291667  0.125000  0.041667     48.000000
 -0.250000  0.125000  0.041667     48.000000
 -0.208333  0.125000  0.041667     48.000000
 -0.166667  0.125000  0.041667     48.000000
 -0.125000  0.125000  0.041667     48.000000
 -0.083333  0.125000  0.041667     24.000000
  0.208333  0.166667  0.041667     24.000000
  0.250000  0.166667  0.041667     48.000000
  0.291667  0.166667  0.041667     48.000000
  0.333333  0.166667  0.041667     48.000000
  0.375000  0.166667  0.041667     48.000000
  0.416667  0.166667  0.041667     48.000000
  0.458333  0.166667  0.041667     48.000000
  0.500000  0.166667  0.041667     48.000000
 -0.458333  0.166667  0.041667     48.000000
 -0.416667  0.166667  0.041667     48.000000
 -0.375000  0.166667  0.041667     48.000000
 -0.333333  0.166667  0.041667     48.000000
 -0.291667  0.166667  0.041667     48.000000
 -0.250000  0.166667  0.041667     48.000000
 -0.208333  0.166667  0.041667     48.000000
 -0.166667  0.166667  0.041667     48.000000
 -0.125000  0.166667  0.041667     24.000000
  0.250000  0.208333  0.041667     24.000000
  0.291667  0.208333  0.041667     48.000000
  0.333333  0.208333  0.041667     48.000000
  0.375000  0.208333  0.041667     48.000000
  0.416667  0.208333  0.041667     48.000000
  0.458333  0.208333  0.041667     48.000000
  0.500000  0.208333  0.041667     48.000000
 -0.458333  0.208333  0.041667     48.000000
 -0.416667  0.208333  0.041667     48.000000
 -0.375000  0.208333  0.041667     48.000000
 -0.333333  0.208333  0.041667     48.000000
 -0.291667  0.208333  0.041667     48.000000
 -0.250000  0.208333  0.041667     48.000000
 -0.208333  0.208333  0.041667     48.000000
 -0.166667  0.208333  0.041667     24.000000
  0.291667  0.250000  0.041667     24.000000
  0.333333  0.250000  0.041667     48.000000
  0.375000  0.250000  0.041667     48.000000
  0.416667  0.250000  0.041667     48.000000
  0.458333  0.250000  0.041667     48.000000
  0.500000  0.250000  0.041667     48.000000
 -0.458333  0.250000  0.041667     48.000000
 -0.416667  0.250000  0.041667     48.000000
 -0.375000  0.250000  0.041667     48.000000
 -0.333333  0.250000  0.041667     48.000000
 -0.291667  0.250000  0.041667     48.000000
 -0.250000  0.250000  0.041667     48.000000
 -0.208333  0.250000  0.041667     24.000000
  0.333333  0.291667  0.041667     24.000000
  0.375000  0.291667  0.041667     48.000000
  0.416667  0.291667  0.041667     48.000000
  0.458333  0.291667  0.041667     48.000000
  0.500000  0.291667  0.041667     48.000000
 -0.458333  0.291667  0.041667     48.000000
 -0.416667  0.291667  0.041667     48.000000
 -0.375000  0.291667  0.041667     48.000000
 -0.333333  0.291667  0.041667     48.000000
 -0.291667  0.291667  0.041667     48.000000
 -0.250000  0.291667  0.041667     24.000000
  0.375000  0.333333  0.041667     24.000000
  0.416667  0.333333  0.041667     48.000000
  0.458333  0.333333  0.041667     48.000000
  0.500000  0.333333  0.041667     48.000000
 -0.458333  0.333333  0.041667     48.000000
 -0.416667  0.333333  0.041667     48.000000
 -0.375000  0.333333  0.041667     48.000000
 -0.333333  0.333333  0.041667     48.000000
 -0.291667  0.333333  0.041667     24.000000
  0.416667  0.375000  0.041667     24.000000
  0.458333  0.375000  0.041667     48.000000
  0.500000  0.375000  0.041667     48.000000
 -0.458333  0.375000  0.041667     48.000000
 -0.416667  0.375000  0.041667     48.000000
 -0.375000  0.375000  0.041667     48.000000
 -0.333333  0.375000  0.041667     24.000000
  0.458333  0.416667  0.041667     24.000000
  0.500000  0.416667  0.041667     48.000000
 -0.458333  0.416667  0.041667     48.000000
 -0.416667  0.416667  0.041667     48.000000
 -0.375000  0.416667  0.041667     24.000000
  0.500000  0.458333  0.041667     24.000000
 -0.458333  0.458333  0.041667     48.000000
 -0.416667  0.458333  0.041667     24.000000
 -0.458333  0.500000  0.041667     12.000000
  0.250000  0.166667  0.083333     24.000000
  0.291667  0.166667  0.083333     48.000000
  0.333333  0.166667  0.083333     48.000000
  0.375000  0.166667  0.083333     48.000000
  0.416667  0.166667  0.083333     48.000000
  0.458333  0.166667  0.083333     48.000000
  0.500000  0.166667  0.083333     48.000000
 -0.458333  0.166667  0.083333     48.000000
 -0.416667  0.166667  0.083333     24.000000
  0.291667  0.208333  0.083333     24.000000
  0.333333  0.208333  0.083333     48.000000
  0.375000  0.208333  0.083333     48.000000
  0.416667  0.208333  0.083333     48.000000
  0.458333  0.208333  0.083333     48.000000
  0.500000  0.208333  0.083333     48.000000
 -0.458333  0.208333  0.083333     48.000000
 -0.416667  0.208333  0.083333     48.000000
 -0.375000  0.208333  0.083333     48.000000
 -0.333333  0.208333  0.083333     48.000000
 -0.291667  0.208333  0.083333     48.000000
 -0.250000  0.208333  0.083333     48.000000
 -0.208333  0.208333  0.083333     48.000000
 -0.166667  0.208333  0.083333     48.000000
 -0.125000  0.208333  0.083333     24.000000
  0.333333  0.250000  0.083333     24.000000
  0.375000  0.250000  0.083333     48.000000
  0.416667  0.250000  0.083333     48.000000
  0.458333  0.250000  0.083333     48.000000
  0.500000  0.250000  0.083333     48.000000
 -0.458333  0.250000  0.083333     48.000000
 -0.416667  0.250000  0.083333     48.000000
 -0.375000  0.250000  0.083333     48.000000
 -0.333333  0.250000  0.083333     48.000000
 -0.291667  0.250000  0.083333     48.000000
 -0.250000  0.250000  0.083333     48.000000
 -0.208333  0.250000  0.083333     48.000000
 -0.166667  0.250000  0.083333     24.000000
  0.375000  0.291667  0.083333     24.000000
  0.416667  0.291667  0.083333     48.000000
  0.458333  0.291667  0.083333     48.000000
  0.500000  0.291667  0.083333     48.000000
 -0.458333  0.291667  0.083333     48.000000
 -0.416667  0.291667  0.083333     48.000000
 -0.375000  0.291667  0.083333     48.000000
 -0.333333  0.291667  0.083333     48.000000
 -0.291667  0.291667  0.083333     48.000000
 -0.250000  0.291667  0.083333     48.000000
 -0.208333  0.291667  0.083333     24.000000
  0.416667  0.333333  0.083333     24.000000
  0.458333  0.333333  0.083333     48.000000
  0.500000  0.333333  0.083333     48.000000
 -0.458333  0.333333  0.083333     48.000000
 -0.416667  0.333333  0.083333     48.000000
 -0.375000  0.333333  0.083333     48.000000
 -0.333333  0.333333  0.083333     48.000000
 -0.291667  0.333333  0.083333     48.000000
 -0.250000  0.333333  0.083333     24.000000
  0.458333  0.375000  0.083333     24.000000
  0.500000  0.375000  0.083333     48.000000
 -0.458333  0.375000  0.083333     48.000000
 -0.416667  0.375000  0.083333     48.000000
 -0.375000  0.375000  0.083333     48.000000
 -0.333333  0.375000  0.083333     48.000000
 -0.291667  0.375000  0.083333     24.000000
  0.500000  0.416667  0.083333     24.000000
 -0.458333  0.416667  0.083333     48.000000
 -0.416667  0.416667  0.083333     48.000000
 -0.375000  0.416667  0.083333     48.000000
 -0.333333  0.416667  0.083333     24.000000
 -0.458333  0.458333  0.083333     24.000000
 -0.416667  0.458333  0.083333     48.000000
 -0.375000  0.458333  0.083333     24.000000
 -0.416667  0.500000  0.083333     12.000000
  0.375000  0.250000  0.125000     24.000000
  0.416667  0.250000  0.125000     48.000000
  0.458333  0.250000  0.125000     48.000000
  0.500000  0.250000  0.125000     48.000000
 -0.458333  0.250000  0.125000     48.000000
 -0.416667  0.250000  0.125000     48.000000
 -0.375000  0.250000  0.125000     24.000000
  0.416667  0.291667  0.125000     24.000000
  0.458333  0.291667  0.125000     48.000000
  0.500000  0.291667  0.125000     48.000000
 -0.458333  0.291667  0.125000     48.000000
 -0.416667  0.291667  0.125000     48.000000
 -0.375000  0.291667  0.125000     48.000000
 -0.333333  0.291667  0.125000     48.000000
 -0.291667  0.291667  0.125000     48.000000
 -0.250000  0.291667  0.125000     48.000000
 -0.208333  0.291667  0.125000     48.000000
 -0.166667  0.291667  0.125000     24.000000
  0.458333  0.333333  0.125000     24.000000
  0.500000  0.333333  0.125000     48.000000
 -0.458333  0.333333  0.125000     48.000000
 -0.416667  0.333333  0.125000     48.000000
 -0.375000  0.333333  0.125000     48.000000
 -0.333333  0.333333  0.125000     48.000000
 -0.291667  0.333333  0.125000     48.000000
 -0.250000  0.333333  0.125000     48.000000
 -0.208333  0.333333  0.125000     24.000000
  0.500000  0.375000  0.125000     24.000000
 -0.458333  0.375000  0.125000     48.000000
 -0.416667  0.375000  0.125000     48.000000
 -0.375000  0.375000  0.125000     48.000000
 -0.333333  0.375000  0.125000     48.000000
 -0.291667  0.375000  0.125000     48.000000
 -0.250000  0.375000  0.125000     24.000000
 -0.458333  0.416667  0.125000     24.000000
 -0.416667  0.416667  0.125000     48.000000
 -0.375000  0.416667  0.125000     48.000000
 -0.333333  0.416667  0.125000     48.000000
 -0.291667  0.416667  0.125000     24.000000
 -0.416667  0.458333  0.125000     24.000000
 -0.375000  0.458333  0.125000     48.000000
 -0.333333  0.458333  0.125000     24.000000
 -0.375000  0.500000  0.125000     12.000000
  0.500000  0.333333  0.166667     24.000000
 -0.458333  0.333333  0.166667     48.000000
 -0.416667  0.333333  0.166667     48.000000
 -0.375000  0.333333  0.166667     48.000000
 -0.333333  0.333333  0.166667     24.000000
 -0.458333  0.375000  0.166667     24.000000
 -0.416667  0.375000  0.166667     48.000000
 -0.375000  0.375000  0.166667     48.000000
 -0.333333  0.375000  0.166667     48.000000
 -0.291667  0.375000  0.166667     48.000000
 -0.250000  0.375000  0.166667     48.000000
 -0.208333  0.375000  0.166667     24.000000
 -0.416667  0.416667  0.166667     24.000000
 -0.375000  0.416667  0.166667     48.000000
 -0.333333  0.416667  0.166667     48.000000
 -0.291667  0.416667  0.166667     48.000000
 -0.250000  0.416667  0.166667     24.000000
 -0.375000  0.458333  0.166667     24.000000
 -0.333333  0.458333  0.166667     48.000000
 -0.291667  0.458333  0.166667     24.000000
 -0.333333  0.500000  0.166667     12.000000
 -0.375000  0.416667  0.208333     24.000000
 -0.333333  0.416667  0.208333     48.000000
 -0.291667  0.416667  0.208333     24.000000
 -0.333333  0.458333  0.208333     24.000000
 -0.291667  0.458333  0.208333     48.000000
 -0.250000  0.458333  0.208333     24.000000
 -0.291667  0.500000  0.208333     12.000000
 -0.250000  0.500000  0.250000      6.000000
 
 Following cartesian coordinates:
            Coordinates               Weight
  0.000000  0.000000  0.000000      1.000000
 -0.041667  0.041667  0.041667      8.000000
 -0.083333  0.083333  0.083333      8.000000
 -0.125000  0.125000  0.125000      8.000000
 -0.166667  0.166667  0.166667      8.000000
 -0.208333  0.208333  0.208333      8.000000
 -0.250000  0.250000  0.250000      8.000000
 -0.291667  0.291667  0.291667      8.000000
 -0.333333  0.333333  0.333333      8.000000
 -0.375000  0.375000  0.375000      8.000000
 -0.416667  0.416667  0.416667      8.000000
 -0.458333  0.458333  0.458333      8.000000
 -0.500000  0.500000  0.500000      4.000000
  0.000000  0.000000  0.083333      6.000000
 -0.041667  0.041667  0.125000     24.000000
 -0.083333  0.083333  0.166667     24.000000
 -0.125000  0.125000  0.208333     24.000000
 -0.166667  0.166667  0.250000     24.000000
 -0.208333  0.208333  0.291667     24.000000
 -0.250000  0.250000  0.333333     24.000000
 -0.291667  0.291667  0.375000     24.000000
 -0.333333  0.333333  0.416667     24.000000
 -0.375000  0.375000  0.458333     24.000000
 -0.416667  0.416667  0.500000     24.000000
 -0.458333  0.458333  0.541667     24.000000
  0.500000 -0.500000 -0.416667     24.000000
  0.458333 -0.458333 -0.375000     24.000000
  0.416667 -0.416667 -0.333333     24.000000
  0.375000 -0.375000 -0.291667     24.000000
  0.333333 -0.333333 -0.250000     24.000000
  0.291667 -0.291667 -0.208333     24.000000
  0.250000 -0.250000 -0.166667     24.000000
  0.208333 -0.208333 -0.125000     24.000000
  0.166667 -0.166667 -0.083333     24.000000
  0.125000 -0.125000 -0.041667     24.000000
  0.083333 -0.083333  0.000000     12.000000
  0.000000  0.000000  0.166667      6.000000
 -0.041667  0.041667  0.208333     24.000000
 -0.083333  0.083333  0.250000     24.000000
 -0.125000  0.125000  0.291667     24.000000
 -0.166667  0.166667  0.333333     24.000000
 -0.208333  0.208333  0.375000     24.000000
 -0.250000  0.250000  0.416667     24.000000
 -0.291667  0.291667  0.458333     24.000000
 -0.333333  0.333333  0.500000     24.000000
 -0.375000  0.375000  0.541667     24.000000
 -0.416667  0.416667  0.583333     24.000000
  0.541667 -0.541667 -0.375000     24.000000
  0.500000 -0.500000 -0.333333     24.000000
  0.458333 -0.458333 -0.291667     24.000000
  0.416667 -0.416667 -0.250000     24.000000
  0.375000 -0.375000 -0.208333     24.000000
  0.333333 -0.333333 -0.166667     24.000000
  0.291667 -0.291667 -0.125000     24.000000
  0.250000 -0.250000 -0.083333     24.000000
  0.208333 -0.208333 -0.041667     24.000000
  0.166667 -0.166667  0.000000     12.000000
  0.000000  0.000000  0.250000      6.000000
 -0.041667  0.041667  0.291667     24.000000
 -0.083333  0.083333  0.333333     24.000000
 -0.125000  0.125000  0.375000     24.000000
 -0.166667  0.166667  0.416667     24.000000
 -0.208333  0.208333  0.458333     24.000000
 -0.250000  0.250000  0.500000     24.000000
 -0.291667  0.291667  0.541667     24.000000
 -0.333333  0.333333  0.583333     24.000000
 -0.375000  0.375000  0.625000     24.000000
  0.583333 -0.583333 -0.333333     24.000000
  0.541667 -0.541667 -0.291667     24.000000
  0.500000 -0.500000 -0.250000     24.000000
  0.458333 -0.458333 -0.208333     24.000000
  0.416667 -0.416667 -0.166667     24.000000
  0.375000 -0.375000 -0.125000     24.000000
  0.333333 -0.333333 -0.083333     24.000000
  0.291667 -0.291667 -0.041667     24.000000
  0.250000 -0.250000  0.000000     12.000000
  0.000000  0.000000  0.333333      6.000000
 -0.041667  0.041667  0.375000     24.000000
 -0.083333  0.083333  0.416667     24.000000
 -0.125000  0.125000  0.458333     24.000000
 -0.166667  0.166667  0.500000     24.000000
 -0.208333  0.208333  0.541667     24.000000
 -0.250000  0.250000  0.583333     24.000000
 -0.291667  0.291667  0.625000     24.000000
 -0.333333  0.333333  0.666667     24.000000
  0.625000 -0.625000 -0.291667     24.000000
  0.583333 -0.583333 -0.250000     24.000000
  0.541667 -0.541667 -0.208333     24.000000
  0.500000 -0.500000 -0.166667     24.000000
  0.458333 -0.458333 -0.125000     24.000000
  0.416667 -0.416667 -0.083333     24.000000
  0.375000 -0.375000 -0.041667     24.000000
  0.333333 -0.333333  0.000000     12.000000
  0.000000  0.000000  0.416667      6.000000
 -0.041667  0.041667  0.458333     24.000000
 -0.083333  0.083333  0.500000     24.000000
 -0.125000  0.125000  0.541667     24.000000
 -0.166667  0.166667  0.583333     24.000000
 -0.208333  0.208333  0.625000     24.000000
 -0.250000  0.250000  0.666667     24.000000
 -0.291667  0.291667  0.708333     24.000000
  0.666667 -0.666667 -0.250000     24.000000
  0.625000 -0.625000 -0.208333     24.000000
  0.583333 -0.583333 -0.166667     24.000000
  0.541667 -0.541667 -0.125000     24.000000
  0.500000 -0.500000 -0.083333     24.000000
  0.458333 -0.458333 -0.041667     24.000000
  0.416667 -0.416667  0.000000     12.000000
  0.000000  0.000000  0.500000      6.000000
 -0.041667  0.041667  0.541667     24.000000
 -0.083333  0.083333  0.583333     24.000000
 -0.125000  0.125000  0.625000     24.000000
 -0.166667  0.166667  0.666667     24.000000
 -0.208333  0.208333  0.708333     24.000000
 -0.250000  0.250000  0.750000     24.000000
  0.708333 -0.708333 -0.208333     24.000000
  0.666667 -0.666667 -0.166667     24.000000
  0.625000 -0.625000 -0.125000     24.000000
  0.583333 -0.583333 -0.083333     24.000000
  0.541667 -0.541667 -0.041667     24.000000
  0.500000 -0.500000  0.000000     12.000000
  0.000000  0.000000  0.583333      6.000000
 -0.041667  0.041667  0.625000     24.000000
 -0.083333  0.083333  0.666667     24.000000
 -0.125000  0.125000  0.708333     24.000000
 -0.166667  0.166667  0.750000     24.000000
 -0.208333  0.208333  0.791667     24.000000
  0.750000 -0.750000 -0.166667     24.000000
  0.708333 -0.708333 -0.125000     24.000000
  0.666667 -0.666667 -0.083333     24.000000
  0.625000 -0.625000 -0.041667     24.000000
  0.583333 -0.583333  0.000000     12.000000
  0.000000  0.000000  0.666667      6.000000
 -0.041667  0.041667  0.708333     24.000000
 -0.083333  0.083333  0.750000     24.000000
 -0.125000  0.125000  0.791667     24.000000
 -0.166667  0.166667  0.833333     24.000000
  0.791667 -0.791667 -0.125000     24.000000
  0.750000 -0.750000 -0.083333     24.000000
  0.708333 -0.708333 -0.041667     24.000000
  0.666667 -0.666667  0.000000     12.000000
  0.000000  0.000000  0.750000      6.000000
 -0.041667  0.041667  0.791667     24.000000
 -0.083333  0.083333  0.833333     24.000000
 -0.125000  0.125000  0.875000     24.000000
  0.833333 -0.833333 -0.083333     24.000000
  0.791667 -0.791667 -0.041667     24.000000
  0.750000 -0.750000  0.000000     12.000000
  0.000000  0.000000  0.833333      6.000000
 -0.041667  0.041667  0.875000     24.000000
 -0.083333  0.083333  0.916667     24.000000
  0.875000 -0.875000 -0.041667     24.000000
  0.833333 -0.833333  0.000000     12.000000
  0.000000  0.000000  0.916667      6.000000
 -0.041667  0.041667  0.958333     24.000000
  0.916667 -0.916667  0.000000     12.000000
  0.000000  0.000000  1.000000      3.000000
  0.000000  0.083333  0.166667     24.000000
 -0.041667  0.125000  0.208333     48.000000
 -0.083333  0.166667  0.250000     48.000000
 -0.125000  0.208333  0.291667     48.000000
 -0.166667  0.250000  0.333333     48.000000
 -0.208333  0.291667  0.375000     48.000000
 -0.250000  0.333333  0.416667     48.000000
 -0.291667  0.375000  0.458333     48.000000
 -0.333333  0.416667  0.500000     48.000000
 -0.375000  0.458333  0.541667     48.000000
  0.583333 -0.500000 -0.416667     24.000000
 -0.000000  0.083333  0.250000     24.000000
 -0.041667  0.125000  0.291667     48.000000
 -0.083333  0.166667  0.333333     48.000000
 -0.125000  0.208333  0.375000     48.000000
 -0.166667  0.250000  0.416667     48.000000
 -0.208333  0.291667  0.458333     48.000000
 -0.250000  0.333333  0.500000     48.000000
 -0.291667  0.375000  0.541667     48.000000
 -0.333333  0.416667  0.583333     48.000000
  0.625000 -0.541667 -0.375000     48.000000
  0.583333 -0.500000 -0.333333     48.000000
  0.541667 -0.458333 -0.291667     48.000000
  0.500000 -0.416667 -0.250000     48.000000
  0.458333 -0.375000 -0.208333     48.000000
  0.416667 -0.333333 -0.166667     48.000000
  0.375000 -0.291667 -0.125000     48.000000
  0.333333 -0.250000 -0.083333     48.000000
  0.291667 -0.208333 -0.041667     48.000000
  0.250000 -0.166667 -0.000000     24.000000
 -0.000000  0.083333  0.333333     24.000000
 -0.041667  0.125000  0.375000     48.000000
 -0.083333  0.166667  0.416667     48.000000
 -0.125000  0.208333  0.458333     48.000000
 -0.166667  0.250000  0.500000     48.000000
 -0.208333  0.291667  0.541667     48.000000
 -0.250000  0.333333  0.583333     48.000000
 -0.291667  0.375000  0.625000     48.000000
  0.666667 -0.583333 -0.333333     48.000000
  0.625000 -0.541667 -0.291667     48.000000
  0.583333 -0.500000 -0.250000     48.000000
  0.541667 -0.458333 -0.208333     48.000000
  0.500000 -0.416667 -0.166667     48.000000
  0.458333 -0.375000 -0.125000     48.000000
  0.416667 -0.333333 -0.083333     48.000000
  0.375000 -0.291667 -0.041667     48.000000
  0.333333 -0.250000  0.000000     24.000000
  0.000000  0.083333  0.416667     24.000000
 -0.041667  0.125000  0.458333     48.000000
 -0.083333  0.166667  0.500000     48.000000
 -0.125000  0.208333  0.541667     48.000000
 -0.166667  0.250000  0.583333     48.000000
 -0.208333  0.291667  0.625000     48.000000
 -0.250000  0.333333  0.666667     48.000000
  0.708333 -0.625000 -0.291667     48.000000
  0.666667 -0.583333 -0.250000     48.000000
  0.625000 -0.541667 -0.208333     48.000000
  0.583333 -0.500000 -0.166667     48.000000
  0.541667 -0.458333 -0.125000     48.000000
  0.500000 -0.416667 -0.083333     48.000000
  0.458333 -0.375000 -0.041667     48.000000
  0.416667 -0.333333  0.000000     24.000000
 -0.000000  0.083333  0.500000     24.000000
 -0.041667  0.125000  0.541667     48.000000
 -0.083333  0.166667  0.583333     48.000000
 -0.125000  0.208333  0.625000     48.000000
 -0.166667  0.250000  0.666667     48.000000
 -0.208333  0.291667  0.708333     48.000000
  0.750000 -0.666667 -0.250000     48.000000
  0.708333 -0.625000 -0.208333     48.000000
  0.666667 -0.583333 -0.166667     48.000000
  0.625000 -0.541667 -0.125000     48.000000
  0.583333 -0.500000 -0.083333     48.000000
  0.541667 -0.458333 -0.041667     48.000000
  0.500000 -0.416667  0.000000     24.000000
 -0.000000  0.083333  0.583333     24.000000
 -0.041667  0.125000  0.625000     48.000000
 -0.083333  0.166667  0.666667     48.000000
 -0.125000  0.208333  0.708333     48.000000
 -0.166667  0.250000  0.750000     48.000000
  0.791667 -0.708333 -0.208333     48.000000
  0.750000 -0.666667 -0.166667     48.000000
  0.708333 -0.625000 -0.125000     48.000000
  0.666667 -0.583333 -0.083333     48.000000
  0.625000 -0.541667 -0.041667     48.000000
  0.583333 -0.500000  0.000000     24.000000
  0.000000  0.083333  0.666667     24.000000
 -0.041667  0.125000  0.708333     48.000000
 -0.083333  0.166667  0.750000     48.000000
 -0.125000  0.208333  0.791667     48.000000
  0.833333 -0.750000 -0.166667     48.000000
  0.791667 -0.708333 -0.125000     48.000000
  0.750000 -0.666667 -0.083333     48.000000
  0.708333 -0.625000 -0.041667     48.000000
  0.666667 -0.583333  0.000000     24.000000
  0.000000  0.083333  0.750000     24.000000
 -0.041667  0.125000  0.791667     48.000000
 -0.083333  0.166667  0.833333     48.000000
  0.875000 -0.791667 -0.125000     48.000000
  0.833333 -0.750000 -0.083333     48.000000
  0.791667 -0.708333 -0.041667     48.000000
  0.750000 -0.666667 -0.000000     24.000000
 -0.000000  0.083333  0.833333     24.000000
 -0.041667  0.125000  0.875000     48.000000
  0.916667 -0.833333 -0.083333     48.000000
  0.875000 -0.791667 -0.041667     48.000000
  0.833333 -0.750000  0.000000     24.000000
  0.000000  0.083333  0.916667     24.000000
  0.958333 -0.875000 -0.041667     48.000000
  0.916667 -0.833333  0.000000     24.000000
  1.000000 -0.916667 -0.000000     12.000000
  0.000000  0.166667  0.333333     24.000000
 -0.041667  0.208333  0.375000     48.000000
 -0.083333  0.250000  0.416667     48.000000
 -0.125000  0.291667  0.458333     48.000000
 -0.166667  0.333333  0.500000     48.000000
 -0.208333  0.375000  0.541667     48.000000
 -0.250000  0.416667  0.583333     48.000000
  0.708333 -0.541667 -0.375000     48.000000
  0.666667 -0.500000 -0.333333     24.000000
  0.000000  0.166667  0.416667     24.000000
 -0.041667  0.208333  0.458333     48.000000
 -0.083333  0.250000  0.500000     48.000000
 -0.125000  0.291667  0.541667     48.000000
 -0.166667  0.333333  0.583333     48.000000
 -0.208333  0.375000  0.625000     48.000000
  0.750000 -0.583333 -0.333333     48.000000
  0.708333 -0.541667 -0.291667     48.000000
  0.666667 -0.500000 -0.250000     48.000000
  0.625000 -0.458333 -0.208333     48.000000
  0.583333 -0.416667 -0.166667     48.000000
  0.541667 -0.375000 -0.125000     48.000000
  0.500000 -0.333333 -0.083333     48.000000
  0.458333 -0.291667 -0.041667     48.000000
  0.416667 -0.250000 -0.000000     24.000000
 -0.000000  0.166667  0.500000     24.000000
 -0.041667  0.208333  0.541667     48.000000
 -0.083333  0.250000  0.583333     48.000000
 -0.125000  0.291667  0.625000     48.000000
 -0.166667  0.333333  0.666667     48.000000
  0.791667 -0.625000 -0.291667     48.000000
  0.750000 -0.583333 -0.250000     48.000000
  0.708333 -0.541667 -0.208333     48.000000
  0.666667 -0.500000 -0.166667     48.000000
  0.625000 -0.458333 -0.125000     48.000000
  0.583333 -0.416667 -0.083333     48.000000
  0.541667 -0.375000 -0.041667     48.000000
  0.500000 -0.333333  0.000000     24.000000
  0.000000  0.166667  0.583333     24.000000
 -0.041667  0.208333  0.625000     48.000000
 -0.083333  0.250000  0.666667     48.000000
 -0.125000  0.291667  0.708333     48.000000
  0.833333 -0.666667 -0.250000     48.000000
  0.791667 -0.625000 -0.208333     48.000000
  0.750000 -0.583333 -0.166667     48.000000
  0.708333 -0.541667 -0.125000     48.000000
  0.666667 -0.500000 -0.083333     48.000000
  0.625000 -0.458333 -0.041667     48.000000
  0.583333 -0.416667 -0.000000     24.000000
  0.000000  0.166667  0.666667     24.000000
 -0.041667  0.208333  0.708333     48.000000
 -0.083333  0.250000  0.750000     48.000000
  0.875000 -0.708333 -0.208333     48.000000
  0.833333 -0.666667 -0.166667     48.000000
  0.791667 -0.625000 -0.125000     48.000000
  0.750000 -0.583333 -0.083333     48.000000
  0.708333 -0.541667 -0.041667     48.000000
  0.666667 -0.500000  0.000000     24.000000
 -0.000000  0.166667  0.750000     24.000000
 -0.041667  0.208333  0.791667     48.000000
  0.916667 -0.750000 -0.166667     48.000000
  0.875000 -0.708333 -0.125000     48.000000
  0.833333 -0.666667 -0.083333     48.000000
  0.791667 -0.625000 -0.041667     48.000000
  0.750000 -0.583333 -0.000000     24.000000
  0.000000  0.166667  0.833333     24.000000
  0.958333 -0.791667 -0.125000     48.000000
  0.916667 -0.750000 -0.083333     48.000000
  0.875000 -0.708333 -0.041667     48.000000
  0.833333 -0.666667 -0.000000     24.000000
  1.000000 -0.833333 -0.083333     24.000000
  0.958333 -0.791667 -0.041667     48.000000
  0.916667 -0.750000  0.000000     24.000000
  1.000000 -0.833333 -0.000000     12.000000
 -0.000000  0.250000  0.500000     24.000000
 -0.041667  0.291667  0.541667     48.000000
 -0.083333  0.333333  0.583333     48.000000
 -0.125000  0.375000  0.625000     48.000000
  0.833333 -0.583333 -0.333333     48.000000
  0.791667 -0.541667 -0.291667     48.000000
  0.750000 -0.500000 -0.250000     24.000000
  0.000000  0.250000  0.583333     24.000000
 -0.041667  0.291667  0.625000     48.000000
 -0.083333  0.333333  0.666667     48.000000
  0.875000 -0.625000 -0.291667     48.000000
  0.833333 -0.583333 -0.250000     48.000000
  0.791667 -0.541667 -0.208333     48.000000
  0.750000 -0.500000 -0.166667     48.000000
  0.708333 -0.458333 -0.125000     48.000000
  0.666667 -0.416667 -0.083333     48.000000
  0.625000 -0.375000 -0.041667     48.000000
  0.583333 -0.333333  0.000000     24.000000
 -0.000000  0.250000  0.666667     24.000000
 -0.041667  0.291667  0.708333     48.000000
  0.916667 -0.666667 -0.250000     48.000000
  0.875000 -0.625000 -0.208333     48.000000
  0.833333 -0.583333 -0.166667     48.000000
  0.791667 -0.541667 -0.125000     48.000000
  0.750000 -0.500000 -0.083333     48.000000
  0.708333 -0.458333 -0.041667     48.000000
  0.666667 -0.416667  0.000000     24.000000
  0.000000  0.250000  0.750000     24.000000
  0.958333 -0.708333 -0.208333     48.000000
  0.916667 -0.666667 -0.166667     48.000000
  0.875000 -0.625000 -0.125000     48.000000
  0.833333 -0.583333 -0.083333     48.000000
  0.791667 -0.541667 -0.041667     48.000000
  0.750000 -0.500000  0.000000     24.000000
  1.000000 -0.750000 -0.166667     24.000000
  0.958333 -0.708333 -0.125000     48.000000
  0.916667 -0.666667 -0.083333     48.000000
  0.875000 -0.625000 -0.041667     48.000000
  0.833333 -0.583333 -0.000000     24.000000
  1.000000 -0.750000 -0.083333     24.000000
  0.958333 -0.708333 -0.041667     48.000000
  0.916667 -0.666667  0.000000     24.000000
  1.000000 -0.750000  0.000000     12.000000
  0.000000  0.333333  0.666667     24.000000
  0.958333 -0.625000 -0.291667     48.000000
  0.916667 -0.583333 -0.250000     48.000000
  0.875000 -0.541667 -0.208333     48.000000
  0.833333 -0.500000 -0.166667     24.000000
  1.000000 -0.666667 -0.250000     24.000000
  0.958333 -0.625000 -0.208333     48.000000
  0.916667 -0.583333 -0.166667     48.000000
  0.875000 -0.541667 -0.125000     48.000000
  0.833333 -0.500000 -0.083333     48.000000
  0.791667 -0.458333 -0.041667     48.000000
  0.750000 -0.416667 -0.000000     24.000000
  1.000000 -0.666667 -0.166667     24.000000
  0.958333 -0.625000 -0.125000     48.000000
  0.916667 -0.583333 -0.083333     48.000000
  0.875000 -0.541667 -0.041667     48.000000
  0.833333 -0.500000 -0.000000     24.000000
  1.000000 -0.666667 -0.083333     24.000000
  0.958333 -0.625000 -0.041667     48.000000
  0.916667 -0.583333  0.000000     24.000000
  1.000000 -0.666667 -0.000000     12.000000
  1.000000 -0.583333 -0.166667     24.000000
  0.958333 -0.541667 -0.125000     48.000000
  0.916667 -0.500000 -0.083333     24.000000
  1.000000 -0.583333 -0.083333     24.000000
  0.958333 -0.541667 -0.041667     48.000000
  0.916667 -0.500000  0.000000     24.000000
  1.000000 -0.583333  0.000000     12.000000
  1.000000 -0.500000  0.000000      6.000000
 


--------------------------------------------------------------------------------------------------------




 Dimension of arrays:
   k-points           NKPTS =    413   k-points in BZ     NKDIM =    413   number of bands    NBANDS=      8
   number of dos      NEDOS =    301   number of ions     NIONS =      2
   non local maximal  LDIM  =      4   non local SUM 2l+1 LMDIM =      8
   total plane-waves  NPLWV =  64000
   max r-space proj   IRMAX =      1   max aug-charges    IRDMAX= 364128
   dimension x,y,z NGX =    40 NGY =   40 NGZ =   40
   dimension x,y,z NGXF=    80 NGYF=   80 NGZF=   80
   support grid    NGXF=   160 NGYF=  160 NGZF=  160
   ions per type =               2
   NGX,Y,Z   is equivalent  to a cutoff of  16.41, 16.41, 16.41 a.u.
   NGXF,Y,Z  is equivalent  to a cutoff of  32.82, 32.82, 32.82 a.u.

 SYSTEM =  Si                                      
 POSCAR =  Unknown                                 

 Startparameter for this run:
   NWRITE =      2    write-flag & timer
   PREC   = accura    normal or accurate (medium, high low for compatibility)
   ISTART =      0    job   : 0-new  1-cont  2-samecut
   ICHARG =      2    charge: 1-file 2-atom 10-const
   ISPIN  =      1    spin polarized calculation?
   LNONCOLLINEAR =      F non collinear calculations
   LSORBIT =      F    spin-orbit coupling
   INIWAV =      1    electr: 0-lowe 1-rand  2-diag
   LASPH  =      T    aspherical Exc in radial PAW
   METAGGA=      F    non-selfconsistent MetaGGA calc.

 Electronic Relaxation 1
   ENCUT  =  800.0 eV  58.80 Ry    7.67 a.u.   9.34  9.34  9.34*2*pi/ulx,y,z
   ENINI  =  800.0     initial cutoff
   ENAUG  =  900.0 eV  augmentation charge cutoff
   NELM   =    200;   NELMIN=  6; NELMDL=  0     # of ELM steps 
   EDIFF  = 0.1E-06   stopping-criterion for ELM
   LREAL  =      F    real-space projection
   NLSPLINE    = F    spline interpolate recip. space projectors
   LCOMPAT=      F    compatible to vasp.4.4
   GGA_COMPAT  = T    GGA compatible to vasp.4.4-vasp.4.6
   LMAXPAW     = -100 max onsite density
   LMAXMIX     =    4 max onsite mixed and CHGCAR
   VOSKOWN=      0    Vosko Wilk Nusair interpolation
   ROPT   =    0.00000
 Ionic relaxation
   EDIFFG = 0.1E-05   stopping-criterion for IOM
   NSW    =      0    number of steps for IOM
   NBLOCK =      1;   KBLOCK =      1    inner block; outer block 
   IBRION =     -1    ionic relax: 0-MD 1-quasi-New 2-CG
   NFREE  =      0    steps in history (QN), initial steepest desc. (CG)
   ISIF   =      2    stress and relaxation
   IWAVPR =     10    prediction:  0-non 1-charg 2-wave 3-comb
   ISYM   =      2    0-nonsym 1-usesym 2-fastsym
   LCORR  =      T    Harris-Foulkes like correction to forces

   POTIM  = 0.5000    time-step for ionic-motion
   TEIN   =    0.0    initial temperature
   TEBEG  =    0.0;   TEEND  =   0.0 temperature during run
   SMASS  =  -3.00    Nose mass-parameter (am)
   estimated Nose-frequenzy (Omega)   =  0.10E-29 period in steps = 0.13E+47 mass=  -0.375E-27a.u.
   SCALEE = 1.0000    scale energy and forces
   NPACO  =    256;   APACO  = 16.0  distance and # of slots for P.C.
   PSTRESS=    0.0 pullay stress

  Mass of Ions in am
   POMASS =  28.09
  Ionic Valenz
   ZVAL   =   4.00
  Atomic Wigner-Seitz radii
   RWIGS  =  -1.00
  virtual crystal weights 
   VCA    =   1.00
   NELECT =       8.0000    total number of electrons
   NUPDOWN=      -1.0000    fix difference up-down

 DOS related values:
   EMIN   =  10.00;   EMAX   =-10.00  energy-range for DOS
   EFERMI =   0.00
   ISMEAR =    -5;   SIGMA  =   0.20  broadening in eV -4-tet -1-fermi 0-gaus

 Electronic relaxation 2 (details)
   IALGO  =     38    algorithm
   LDIAG  =      T    sub-space diagonalisation (order eigenvalues)
   LSUBROT=      F    optimize rotation matrix (better conditioning)
   TURBO    =      0    0=normal 1=particle mesh
   IRESTART =      0    0=no restart 2=restart with 2 vectors
   NREBOOT  =      0    no. of reboots
   NMIN     =      0    reboot dimension
   EREF     =   0.00    reference energy to select bands
   IMIX   =      4    mixing-type and parameters
     AMIX     =   0.40;   BMIX     =  1.00
     AMIX_MAG =   1.60;   BMIX_MAG =  1.00
     AMIN     =   0.10
     WC   =   100.;   INIMIX=   1;  MIXPRE=   1;  MAXMIX= -45

 Intra band minimization:
   WEIMIN = 0.0000     energy-eigenvalue tresh-hold
   EBREAK =  0.31E-08  absolut break condition
   DEPER  =   0.30     relativ break condition  

   TIME   =   0.40     timestep for ELM

  volume/ion in A,a.u.               =      23.52       158.70
  Fermi-wavevector in a.u.,A,eV,Ry     =   0.907062  1.714098 11.194344  0.822761
  Thomas-Fermi vector in A             =   2.030824
 
 Write flags
   LWAVE        =      F    write WAVECAR
   LDOWNSAMPLE  =      F    k-point downsampling of WAVECAR
   LCHARG       =      F    write CHGCAR
   LVTOT        =      F    write LOCPOT, total local potential
   LVHAR        =      F    write LOCPOT, Hartree potential only
   LELF         =      F    write electronic localiz. function (ELF)
   LORBIT       =     11    0 simple, 1 ext, 2 COOP (PROOUT), +10 PAW based schemes


 Dipole corrections
   LMONO  =      F    monopole corrections only (constant potential shift)
   LDIPOL =      F    correct potential (dipole corrections)
   IDIPOL =      0    1-x, 2-y, 3-z, 4-all directions 
   EPSILON=  1.0000000 bulk dielectric constant

 Exchange correlation treatment:
   GGA     =    PE    GGA type
   LEXCH   =     8    internal setting for exchange type
   VOSKOWN=      0    Vosko Wilk Nusair interpolation
   LHFCALC =     F    Hartree Fock is set to
   LHFONE  =     F    Hartree Fock one center treatment
   AEXX    =    0.0000 exact exchange contribution

 Linear response parameters
   LEPSILON=     F    determine dielectric tensor
   LRPA    =     F    only Hartree local field effects (RPA)
   LNABLA  =     F    use nabla operator in PAW spheres
   LVEL    =     F    velocity operator in full k-point grid
   LINTERFAST=   F  fast interpolation
   KINTER  =     0    interpolate to denser k-point grid
   CSHIFT  =0.1000    complex shift for real part using Kramers Kronig
   OMEGAMAX=  -1.0    maximum frequency
   DEG_THRESHOLD= 0.2000000E-02 threshold for treating states as degnerate
   RTIME   =   -0.100 relaxation time in fs
  (WPLASMAI=    0.000 imaginary part of plasma frequency in eV, 0.658/RTIME)
   DFIELD  = 0.0000000 0.0000000 0.0000000 field for delta impulse in time
 
 Orbital magnetization related:
   ORBITALMAG=     F  switch on orbital magnetization
   LCHIMAG   =     F  perturbation theory with respect to B field
   DQ        =  0.001000  dq finite difference perturbation B field
   LLRAUG    =     F  two centre corrections for induced B field



--------------------------------------------------------------------------------------------------------


 Static calculation
 charge density and potential will be updated during run
 non-spin polarized calculation
 Variant of blocked Davidson
 Davidson routine will perform the subspace rotation
 perform sub-space diagonalisation
    after iterative eigenvector-optimisation
 modified Broyden-mixing scheme, WC =      100.0
 initial mixing is a Kerker type mixing with AMIX =  0.4000 and BMIX =      1.0000
 Hartree-type preconditioning will be used
 using additional bands            4
 reciprocal scheme for non local part
 use partial core corrections
 calculate Harris-corrections to forces 
   (improved forces if not selfconsistent)
 use gradient corrections 
 use of overlap-Matrix (Vanderbilt PP)
 Fermi weights with tetrahedron method with Bloechl corrections


--------------------------------------------------------------------------------------------------------


  energy-cutoff  :      800.00
  volume of cell :       47.03
      direct lattice vectors                 reciprocal lattice vectors
     0.000000000  2.865000000  2.865000000    -0.174520070  0.174520070  0.174520070
     2.865000000  0.000000000  2.865000000     0.174520070 -0.174520070  0.174520070
     2.865000000  2.865000000  0.000000000     0.174520070  0.174520070 -0.174520070

  length of vectors
     4.051721856  4.051721856  4.051721856     0.302277628  0.302277628  0.302277628


 
 k-points in units of 2pi/SCALE and weight: read from INCAR                         
   0.00000000  0.00000000  0.00000000       0.000
  -0.04166667  0.04166667  0.04166667       0.001
  -0.08333333  0.08333333  0.08333333       0.001
  -0.12500000  0.12500000  0.12500000       0.001
  -0.16666667  0.16666667  0.16666667       0.001
  -0.20833333  0.20833333  0.20833333       0.001
  -0.25000000  0.25000000  0.25000000       0.001
  -0.29166667  0.29166667  0.29166667       0.001
  -0.33333333  0.33333333  0.33333333       0.001
  -0.37500000  0.37500000  0.37500000       0.001
  -0.41666667  0.41666667  0.41666667       0.001
  -0.45833333  0.45833333  0.45833333       0.001
  -0.50000000  0.50000000  0.50000000       0.000
   0.00000000  0.00000000  0.08333333       0.000
  -0.04166667  0.04166667  0.12500000       0.002
  -0.08333333  0.08333333  0.16666667       0.002
  -0.12500000  0.12500000  0.20833333       0.002
  -0.16666667  0.16666667  0.25000000       0.002
  -0.20833333  0.20833333  0.29166667       0.002
  -0.25000000  0.25000000  0.33333333       0.002
  -0.29166667  0.29166667  0.37500000       0.002
  -0.33333333  0.33333333  0.41666667       0.002
  -0.37500000  0.37500000  0.45833333       0.002
  -0.41666667  0.41666667  0.50000000       0.002
  -0.45833333  0.45833333  0.54166667       0.002
   0.50000000 -0.50000000 -0.41666667       0.002
   0.45833333 -0.45833333 -0.37500000       0.002
   0.41666667 -0.41666667 -0.33333333       0.002
   0.37500000 -0.37500000 -0.29166667       0.002
   0.33333333 -0.33333333 -0.25000000       0.002
   0.29166667 -0.29166667 -0.20833333       0.002
   0.25000000 -0.25000000 -0.16666667       0.002
   0.20833333 -0.20833333 -0.12500000       0.002
   0.16666667 -0.16666667 -0.08333333       0.002
   0.12500000 -0.12500000 -0.04166667       0.002
   0.08333333 -0.08333333  0.00000000       0.001
   0.00000000  0.00000000  0.16666667       0.000
  -0.04166667  0.04166667  0.20833333       0.002
  -0.08333333  0.08333333  0.25000000       0.002
  -0.12500000  0.12500000  0.29166667       0.002
  -0.16666667  0.16666667  0.33333333       0.002
  -0.20833333  0.20833333  0.37500000       0.002
  -0.25000000  0.25000000  0.41666667       0.002
  -0.29166667  0.29166667  0.45833333       0.002
  -0.33333333  0.33333333  0.50000000       0.002
  -0.37500000  0.37500000  0.54166667       0.002
  -0.41666667  0.41666667  0.58333333       0.002
   0.54166667 -0.54166667 -0.37500000       0.002
   0.50000000 -0.50000000 -0.33333333       0.002
   0.45833333 -0.45833333 -0.29166667       0.002
   0.41666667 -0.41666667 -0.25000000       0.002
   0.37500000 -0.37500000 -0.20833333       0.002
   0.33333333 -0.33333333 -0.16666667       0.002
   0.29166667 -0.29166667 -0.12500000       0.002
   0.25000000 -0.25000000 -0.08333333       0.002
   0.20833333 -0.20833333 -0.04166667       0.002
   0.16666667 -0.16666667  0.00000000       0.001
   0.00000000  0.00000000  0.25000000       0.000
  -0.04166667  0.04166667  0.29166667       0.002
  -0.08333333  0.08333333  0.33333333       0.002
  -0.12500000  0.12500000  0.37500000       0.002
  -0.16666667  0.16666667  0.41666667       0.002
  -0.20833333  0.20833333  0.45833333       0.002
  -0.25000000  0.25000000  0.50000000       0.002
  -0.29166667  0.29166667  0.54166667       0.002
  -0.33333333  0.33333333  0.58333333       0.002
  -0.37500000  0.37500000  0.62500000       0.002
   0.58333333 -0.58333333 -0.33333333       0.002
   0.54166667 -0.54166667 -0.29166667       0.002
   0.50000000 -0.50000000 -0.25000000       0.002
   0.45833333 -0.45833333 -0.20833333       0.002
   0.41666667 -0.41666667 -0.16666667       0.002
   0.37500000 -0.37500000 -0.12500000       0.002
   0.33333333 -0.33333333 -0.08333333       0.002
   0.29166667 -0.29166667 -0.04166667       0.002
   0.25000000 -0.25000000  0.00000000       0.001
   0.00000000  0.00000000  0.33333333       0.000
  -0.04166667  0.04166667  0.37500000       0.002
  -0.08333333  0.08333333  0.41666667       0.002
  -0.12500000  0.12500000  0.45833333       0.002
  -0.16666667  0.16666667  0.50000000       0.002
  -0.20833333  0.20833333  0.54166667       0.002
  -0.25000000  0.25000000  0.58333333       0.002
  -0.29166667  0.29166667  0.62500000       0.002
  -0.33333333  0.33333333  0.66666667       0.002
   0.62500000 -0.62500000 -0.29166667       0.002
   0.58333333 -0.58333333 -0.25000000       0.002
   0.54166667 -0.54166667 -0.20833333       0.002
   0.50000000 -0.50000000 -0.16666667       0.002
   0.45833333 -0.45833333 -0.12500000       0.002
   0.41666667 -0.41666667 -0.08333333       0.002
   0.37500000 -0.37500000 -0.04166667       0.002
   0.33333333 -0.33333333  0.00000000       0.001
   0.00000000  0.00000000  0.41666667       0.000
  -0.04166667  0.04166667  0.45833333       0.002
  -0.08333333  0.08333333  0.50000000       0.002
  -0.12500000  0.12500000  0.54166667       0.002
  -0.16666667  0.16666667  0.58333333       0.002
  -0.20833333  0.20833333  0.62500000       0.002
  -0.25000000  0.25000000  0.66666667       0.002
  -0.29166667  0.29166667  0.70833333       0.002
   0.66666667 -0.66666667 -0.25000000       0.002
   0.62500000 -0.62500000 -0.20833333       0.002
   0.58333333 -0.58333333 -0.16666667       0.002
   0.54166667 -0.54166667 -0.12500000       0.002
   0.50000000 -0.50000000 -0.08333333       0.002
   0.45833333 -0.45833333 -0.04166667       0.002
   0.41666667 -0.41666667  0.00000000       0.001
   0.00000000  0.00000000  0.50000000       0.000
  -0.04166667  0.04166667  0.54166667       0.002
  -0.08333333  0.08333333  0.58333333       0.002
  -0.12500000  0.12500000  0.62500000       0.002
  -0.16666667  0.16666667  0.66666667       0.002
  -0.20833333  0.20833333  0.70833333       0.002
  -0.25000000  0.25000000  0.75000000       0.002
   0.70833333 -0.70833333 -0.20833333       0.002
   0.66666667 -0.66666667 -0.16666667       0.002
   0.62500000 -0.62500000 -0.12500000       0.002
   0.58333333 -0.58333333 -0.08333333       0.002
   0.54166667 -0.54166667 -0.04166667       0.002
   0.50000000 -0.50000000  0.00000000       0.001
   0.00000000  0.00000000  0.58333333       0.000
  -0.04166667  0.04166667  0.62500000       0.002
  -0.08333333  0.08333333  0.66666667       0.002
  -0.12500000  0.12500000  0.70833333       0.002
  -0.16666667  0.16666667  0.75000000       0.002
  -0.20833333  0.20833333  0.79166667       0.002
   0.75000000 -0.75000000 -0.16666667       0.002
   0.70833333 -0.70833333 -0.12500000       0.002
   0.66666667 -0.66666667 -0.08333333       0.002
   0.62500000 -0.62500000 -0.04166667       0.002
   0.58333333 -0.58333333  0.00000000       0.001
   0.00000000  0.00000000  0.66666667       0.000
  -0.04166667  0.04166667  0.70833333       0.002
  -0.08333333  0.08333333  0.75000000       0.002
  -0.12500000  0.12500000  0.79166667       0.002
  -0.16666667  0.16666667  0.83333333       0.002
   0.79166667 -0.79166667 -0.12500000       0.002
   0.75000000 -0.75000000 -0.08333333       0.002
   0.70833333 -0.70833333 -0.04166667       0.002
   0.66666667 -0.66666667  0.00000000       0.001
   0.00000000  0.00000000  0.75000000       0.000
  -0.04166667  0.04166667  0.79166667       0.002
  -0.08333333  0.08333333  0.83333333       0.002
  -0.12500000  0.12500000  0.87500000       0.002
   0.83333333 -0.83333333 -0.08333333       0.002
   0.79166667 -0.79166667 -0.04166667       0.002
   0.75000000 -0.75000000  0.00000000       0.001
   0.00000000  0.00000000  0.83333333       0.000
  -0.04166667  0.04166667  0.87500000       0.002
  -0.08333333  0.08333333  0.91666667       0.002
   0.87500000 -0.87500000 -0.04166667       0.002
   0.83333333 -0.83333333  0.00000000       0.001
   0.00000000  0.00000000  0.91666667       0.000
  -0.04166667  0.04166667  0.95833333       0.002
   0.91666667 -0.91666667  0.00000000       0.001
   0.00000000  0.00000000  1.00000000       0.000
   0.00000000  0.08333333  0.16666667       0.002
  -0.04166667  0.12500000  0.20833333       0.003
  -0.08333333  0.16666667  0.25000000       0.003
  -0.12500000  0.20833333  0.29166667       0.003
  -0.16666667  0.25000000  0.33333333       0.003
  -0.20833333  0.29166667  0.37500000       0.003
  -0.25000000  0.33333333  0.41666667       0.003
  -0.29166667  0.37500000  0.45833333       0.003
  -0.33333333  0.41666667  0.50000000       0.003
  -0.37500000  0.45833333  0.54166667       0.003
   0.58333333 -0.50000000 -0.41666667       0.002
  -0.00000000  0.08333333  0.25000000       0.002
  -0.04166667  0.12500000  0.29166667       0.003
  -0.08333333  0.16666667  0.33333333       0.003
  -0.12500000  0.20833333  0.37500000       0.003
  -0.16666667  0.25000000  0.41666667       0.003
  -0.20833333  0.29166667  0.45833333       0.003
  -0.25000000  0.33333333  0.50000000       0.003
  -0.29166667  0.37500000  0.54166667       0.003
  -0.33333333  0.41666667  0.58333333       0.003
   0.62500000 -0.54166667 -0.37500000       0.003
   0.58333333 -0.50000000 -0.33333333       0.003
   0.54166667 -0.45833333 -0.29166667       0.003
   0.50000000 -0.41666667 -0.25000000       0.003
   0.45833333 -0.37500000 -0.20833333       0.003
   0.41666667 -0.33333333 -0.16666667       0.003
   0.37500000 -0.29166667 -0.12500000       0.003
   0.33333333 -0.25000000 -0.08333333       0.003
   0.29166667 -0.20833333 -0.04166667       0.003
   0.25000000 -0.16666667 -0.00000000       0.002
  -0.00000000  0.08333333  0.33333333       0.002
  -0.04166667  0.12500000  0.37500000       0.003
  -0.08333333  0.16666667  0.41666667       0.003
  -0.12500000  0.20833333  0.45833333       0.003
  -0.16666667  0.25000000  0.50000000       0.003
  -0.20833333  0.29166667  0.54166667       0.003
  -0.25000000  0.33333333  0.58333333       0.003
  -0.29166667  0.37500000  0.62500000       0.003
   0.66666667 -0.58333333 -0.33333333       0.003
   0.62500000 -0.54166667 -0.29166667       0.003
   0.58333333 -0.50000000 -0.25000000       0.003
   0.54166667 -0.45833333 -0.20833333       0.003
   0.50000000 -0.41666667 -0.16666667       0.003
   0.45833333 -0.37500000 -0.12500000       0.003
   0.41666667 -0.33333333 -0.08333333       0.003
   0.37500000 -0.29166667 -0.04166667       0.003
   0.33333333 -0.25000000  0.00000000       0.002
   0.00000000  0.08333333  0.41666667       0.002
  -0.04166667  0.12500000  0.45833333       0.003
  -0.08333333  0.16666667  0.50000000       0.003
  -0.12500000  0.20833333  0.54166667       0.003
  -0.16666667  0.25000000  0.58333333       0.003
  -0.20833333  0.29166667  0.62500000       0.003
  -0.25000000  0.33333333  0.66666667       0.003
   0.70833333 -0.62500000 -0.29166667       0.003
   0.66666667 -0.58333333 -0.25000000       0.003
   0.62500000 -0.54166667 -0.20833333       0.003
   0.58333333 -0.50000000 -0.16666667       0.003
   0.54166667 -0.45833333 -0.12500000       0.003
   0.50000000 -0.41666667 -0.08333333       0.003
   0.45833333 -0.37500000 -0.04166667       0.003
   0.41666667 -0.33333333  0.00000000       0.002
  -0.00000000  0.08333333  0.50000000       0.002
  -0.04166667  0.12500000  0.54166667       0.003
  -0.08333333  0.16666667  0.58333333       0.003
  -0.12500000  0.20833333  0.62500000       0.003
  -0.16666667  0.25000000  0.66666667       0.003
  -0.20833333  0.29166667  0.70833333       0.003
   0.75000000 -0.66666667 -0.25000000       0.003
   0.70833333 -0.62500000 -0.20833333       0.003
   0.66666667 -0.58333333 -0.16666667       0.003
   0.62500000 -0.54166667 -0.12500000       0.003
   0.58333333 -0.50000000 -0.08333333       0.003
   0.54166667 -0.45833333 -0.04166667       0.003
   0.50000000 -0.41666667  0.00000000       0.002
  -0.00000000  0.08333333  0.58333333       0.002
  -0.04166667  0.12500000  0.62500000       0.003
  -0.08333333  0.16666667  0.66666667       0.003
  -0.12500000  0.20833333  0.70833333       0.003
  -0.16666667  0.25000000  0.75000000       0.003
   0.79166667 -0.70833333 -0.20833333       0.003
   0.75000000 -0.66666667 -0.16666667       0.003
   0.70833333 -0.62500000 -0.12500000       0.003
   0.66666667 -0.58333333 -0.08333333       0.003
   0.62500000 -0.54166667 -0.04166667       0.003
   0.58333333 -0.50000000  0.00000000       0.002
   0.00000000  0.08333333  0.66666667       0.002
  -0.04166667  0.12500000  0.70833333       0.003
  -0.08333333  0.16666667  0.75000000       0.003
  -0.12500000  0.20833333  0.79166667       0.003
   0.83333333 -0.75000000 -0.16666667       0.003
   0.79166667 -0.70833333 -0.12500000       0.003
   0.75000000 -0.66666667 -0.08333333       0.003
   0.70833333 -0.62500000 -0.04166667       0.003
   0.66666667 -0.58333333  0.00000000       0.002
   0.00000000  0.08333333  0.75000000       0.002
  -0.04166667  0.12500000  0.79166667       0.003
  -0.08333333  0.16666667  0.83333333       0.003
   0.87500000 -0.79166667 -0.12500000       0.003
   0.83333333 -0.75000000 -0.08333333       0.003
   0.79166667 -0.70833333 -0.04166667       0.003
   0.75000000 -0.66666667 -0.00000000       0.002
  -0.00000000  0.08333333  0.83333333       0.002
  -0.04166667  0.12500000  0.87500000       0.003
   0.91666667 -0.83333333 -0.08333333       0.003
   0.87500000 -0.79166667 -0.04166667       0.003
   0.83333333 -0.75000000  0.00000000       0.002
   0.00000000  0.08333333  0.91666667       0.002
   0.95833333 -0.87500000 -0.04166667       0.003
   0.91666667 -0.83333333  0.00000000       0.002
   1.00000000 -0.91666667 -0.00000000       0.001
   0.00000000  0.16666667  0.33333333       0.002
  -0.04166667  0.20833333  0.37500000       0.003
  -0.08333333  0.25000000  0.41666667       0.003
  -0.12500000  0.29166667  0.45833333       0.003
  -0.16666667  0.33333333  0.50000000       0.003
  -0.20833333  0.37500000  0.54166667       0.003
  -0.25000000  0.41666667  0.58333333       0.003
   0.70833333 -0.54166667 -0.37500000       0.003
   0.66666667 -0.50000000 -0.33333333       0.002
   0.00000000  0.16666667  0.41666667       0.002
  -0.04166667  0.20833333  0.45833333       0.003
  -0.08333333  0.25000000  0.50000000       0.003
  -0.12500000  0.29166667  0.54166667       0.003
  -0.16666667  0.33333333  0.58333333       0.003
  -0.20833333  0.37500000  0.62500000       0.003
   0.75000000 -0.58333333 -0.33333333       0.003
   0.70833333 -0.54166667 -0.29166667       0.003
   0.66666667 -0.50000000 -0.25000000       0.003
   0.62500000 -0.45833333 -0.20833333       0.003
   0.58333333 -0.41666667 -0.16666667       0.003
   0.54166667 -0.37500000 -0.12500000       0.003
   0.50000000 -0.33333333 -0.08333333       0.003
   0.45833333 -0.29166667 -0.04166667       0.003
   0.41666667 -0.25000000 -0.00000000       0.002
  -0.00000000  0.16666667  0.50000000       0.002
  -0.04166667  0.20833333  0.54166667       0.003
  -0.08333333  0.25000000  0.58333333       0.003
  -0.12500000  0.29166667  0.62500000       0.003
  -0.16666667  0.33333333  0.66666667       0.003
   0.79166667 -0.62500000 -0.29166667       0.003
   0.75000000 -0.58333333 -0.25000000       0.003
   0.70833333 -0.54166667 -0.20833333       0.003
   0.66666667 -0.50000000 -0.16666667       0.003
   0.62500000 -0.45833333 -0.12500000       0.003
   0.58333333 -0.41666667 -0.08333333       0.003
   0.54166667 -0.37500000 -0.04166667       0.003
   0.50000000 -0.33333333  0.00000000       0.002
   0.00000000  0.16666667  0.58333333       0.002
  -0.04166667  0.20833333  0.62500000       0.003
  -0.08333333  0.25000000  0.66666667       0.003
  -0.12500000  0.29166667  0.70833333       0.003
   0.83333333 -0.66666667 -0.25000000       0.003
   0.79166667 -0.62500000 -0.20833333       0.003
   0.75000000 -0.58333333 -0.16666667       0.003
   0.70833333 -0.54166667 -0.12500000       0.003
   0.66666667 -0.50000000 -0.08333333       0.003
   0.62500000 -0.45833333 -0.04166667       0.003
   0.58333333 -0.41666667 -0.00000000       0.002
   0.00000000  0.16666667  0.66666667       0.002
  -0.04166667  0.20833333  0.70833333       0.003
  -0.08333333  0.25000000  0.75000000       0.003
   0.87500000 -0.70833333 -0.20833333       0.003
   0.83333333 -0.66666667 -0.16666667       0.003
   0.79166667 -0.62500000 -0.12500000       0.003
   0.75000000 -0.58333333 -0.08333333       0.003
   0.70833333 -0.54166667 -0.04166667       0.003
   0.66666667 -0.50000000  0.00000000       0.002
  -0.00000000  0.16666667  0.75000000       0.002
  -0.04166667  0.20833333  0.79166667       0.003
   0.91666667 -0.75000000 -0.16666667       0.003
   0.87500000 -0.70833333 -0.12500000       0.003
   0.83333333 -0.66666667 -0.08333333       0.003
   0.79166667 -0.62500000 -0.04166667       0.003
   0.75000000 -0.58333333 -0.00000000       0.002
   0.00000000  0.16666667  0.83333333       0.002
   0.95833333 -0.79166667 -0.12500000       0.003
   0.91666667 -0.75000000 -0.08333333       0.003
   0.87500000 -0.70833333 -0.04166667       0.003
   0.83333333 -0.66666667 -0.00000000       0.002
   1.00000000 -0.83333333 -0.08333333       0.002
   0.95833333 -0.79166667 -0.04166667       0.003
   0.91666667 -0.75000000  0.00000000       0.002
   1.00000000 -0.83333333 -0.00000000       0.001
  -0.00000000  0.25000000  0.50000000       0.002
  -0.04166667  0.29166667  0.54166667       0.003
  -0.08333333  0.33333333  0.58333333       0.003
  -0.12500000  0.37500000  0.62500000       0.003
   0.83333333 -0.58333333 -0.33333333       0.003
   0.79166667 -0.54166667 -0.29166667       0.003
   0.75000000 -0.50000000 -0.25000000       0.002
   0.00000000  0.25000000  0.58333333       0.002
  -0.04166667  0.29166667  0.62500000       0.003
  -0.08333333  0.33333333  0.66666667       0.003
   0.87500000 -0.62500000 -0.29166667       0.003
   0.83333333 -0.58333333 -0.25000000       0.003
   0.79166667 -0.54166667 -0.20833333       0.003
   0.75000000 -0.50000000 -0.16666667       0.003
   0.70833333 -0.45833333 -0.12500000       0.003
   0.66666667 -0.41666667 -0.08333333       0.003
   0.62500000 -0.37500000 -0.04166667       0.003
   0.58333333 -0.33333333  0.00000000       0.002
  -0.00000000  0.25000000  0.66666667       0.002
  -0.04166667  0.29166667  0.70833333       0.003
   0.91666667 -0.66666667 -0.25000000       0.003
   0.87500000 -0.62500000 -0.20833333       0.003
   0.83333333 -0.58333333 -0.16666667       0.003
   0.79166667 -0.54166667 -0.12500000       0.003
   0.75000000 -0.50000000 -0.08333333       0.003
   0.70833333 -0.45833333 -0.04166667       0.003
   0.66666667 -0.41666667  0.00000000       0.002
   0.00000000  0.25000000  0.75000000       0.002
   0.95833333 -0.70833333 -0.20833333       0.003
   0.91666667 -0.66666667 -0.16666667       0.003
   0.87500000 -0.62500000 -0.12500000       0.003
   0.83333333 -0.58333333 -0.08333333       0.003
   0.79166667 -0.54166667 -0.04166667       0.003
   0.75000000 -0.50000000  0.00000000       0.002
   1.00000000 -0.75000000 -0.16666667       0.002
   0.95833333 -0.70833333 -0.12500000       0.003
   0.91666667 -0.66666667 -0.08333333       0.003
   0.87500000 -0.62500000 -0.04166667       0.003
   0.83333333 -0.58333333 -0.00000000       0.002
   1.00000000 -0.75000000 -0.08333333       0.002
   0.95833333 -0.70833333 -0.04166667       0.003
   0.91666667 -0.66666667  0.00000000       0.002
   1.00000000 -0.75000000  0.00000000       0.001
   0.00000000  0.33333333  0.66666667       0.002
   0.95833333 -0.62500000 -0.29166667       0.003
   0.91666667 -0.58333333 -0.25000000       0.003
   0.87500000 -0.54166667 -0.20833333       0.003
   0.83333333 -0.50000000 -0.16666667       0.002
   1.00000000 -0.66666667 -0.25000000       0.002
   0.95833333 -0.62500000 -0.20833333       0.003
   0.91666667 -0.58333333 -0.16666667       0.003
   0.87500000 -0.54166667 -0.12500000       0.003
   0.83333333 -0.50000000 -0.08333333       0.003
   0.79166667 -0.45833333 -0.04166667       0.003
   0.75000000 -0.41666667 -0.00000000       0.002
   1.00000000 -0.66666667 -0.16666667       0.002
   0.95833333 -0.62500000 -0.12500000       0.003
   0.91666667 -0.58333333 -0.08333333       0.003
   0.87500000 -0.54166667 -0.04166667       0.003
   0.83333333 -0.50000000 -0.00000000       0.002
   1.00000000 -0.66666667 -0.08333333       0.002
   0.95833333 -0.62500000 -0.04166667       0.003
   0.91666667 -0.58333333  0.00000000       0.002
   1.00000000 -0.66666667 -0.00000000       0.001
   1.00000000 -0.58333333 -0.16666667       0.002
[...]
      8      10.7599      0.00000

 k-point   380 :      -0.2917    0.4167    0.1250
  band No.  band energies     occupation 
      1      -3.9489      2.00000
      2      -2.7800      2.00000
      3       0.4571      2.00000
      4       1.6093      2.00000
      5       6.9412      0.00000
      6       9.3807      0.00000
      7       9.7870      0.00000
      8      10.1256      0.00000

 k-point   381 :      -0.4167    0.4583    0.1250
  band No.  band energies     occupation 
      1      -3.9236      2.00000
      2      -2.8586      2.00000
      3       1.1337      2.00000
      4       1.3069      2.00000
      5       6.4055      0.00000
      6       6.6476      0.00000
      7      11.1362      0.00000
      8      12.4706      0.00000

 k-point   382 :      -0.3750    0.4583    0.1250
  band No.  band energies     occupation 
      1      -3.6565      2.00000
      2      -3.1130      2.00000
      3       0.9288      2.00000
      4       1.2793      2.00000
      5       6.5771      0.00000
      6       7.1374      0.00000
      7      10.9836      0.00000
      8      11.6835      0.00000

 k-point   383 :      -0.3333    0.4583    0.1250
  band No.  band energies     occupation 
      1      -3.5973      2.00000
      2      -3.1518      2.00000
      3       0.7058      2.00000
      4       1.3595      2.00000
      5       6.6778      0.00000
      6       7.8326      0.00000
      7      10.7586      0.00000
      8      10.9419      0.00000

 k-point   384 :      -0.3750    0.5000    0.1250
  band No.  band energies     occupation 
      1      -3.4006      2.00000
      2      -3.4006      2.00000
      3       1.1854      2.00000
      4       1.1854      2.00000
      5       6.4934      0.00000
      6       6.4934      0.00000
      7      11.8231      0.00000
      8      11.8231      0.00000

 k-point   385 :       0.5000    0.3333    0.1667
  band No.  band energies     occupation 
      1      -5.1665      2.00000
      2      -1.4223      2.00000
      3       1.0560      2.00000
      4       2.1706      2.00000
      5       7.2300      0.00000
      6       8.0460      0.00000
      7       8.4938      0.00000
      8      11.0797      0.00000

 k-point   386 :      -0.4583    0.3333    0.1667
  band No.  band energies     occupation 
      1      -4.8865      2.00000
      2      -1.7832      2.00000
      3       0.8659      2.00000
      4       2.0121      2.00000
      5       7.4771      0.00000
      6       8.1936      0.00000
      7       8.4939      0.00000
      8      11.3625      0.00000

 k-point   387 :      -0.4167    0.3333    0.1667
  band No.  band energies     occupation 
      1      -4.6148      2.00000
      2      -2.1233      2.00000
      3       0.7409      2.00000
      4       1.8848      2.00000
      5       7.5945      0.00000
      6       8.0866      0.00000
      7       9.0009      0.00000
      8      11.4719      0.00000

 k-point   388 :      -0.3750    0.3333    0.1667
  band No.  band energies     occupation 
      1      -4.3967      2.00000
      2      -2.3873      2.00000
      3       0.6713      2.00000
      4       1.8027      2.00000
      5       7.6745      0.00000
      6       7.9567      0.00000
      7       9.6807      0.00000
      8      11.2019      0.00000

 k-point   389 :      -0.3333    0.3333    0.1667
  band No.  band energies     occupation 
      1      -4.3077      2.00000
      2      -2.4925      2.00000
      3       0.6490      2.00000
      4       1.7745      2.00000
      5       7.7224      0.00000
      6       7.8878      0.00000
      7      10.3404      0.00000
      8      10.5446      0.00000

 k-point   390 :      -0.4583    0.3750    0.1667
  band No.  band energies     occupation 
      1      -4.7591      2.00000
      2      -1.9024      2.00000
      3       0.9369      2.00000
      4       1.7734      2.00000
      5       7.1426      0.00000
      6       7.8091      0.00000
      7       8.9330      0.00000
      8      11.8726      0.00000

 k-point   391 :      -0.4167    0.3750    0.1667
  band No.  band energies     occupation 
      1      -4.4794      2.00000
      2      -2.2219      2.00000
      3       0.7771      2.00000
      4       1.6287      2.00000
      5       7.3901      0.00000
      6       8.1958      0.00000
      7       8.7627      0.00000
      8      11.9734      0.00000

 k-point   392 :      -0.3750    0.3750    0.1667
  band No.  band energies     occupation 
      1      -4.2320      2.00000
      2      -2.4965      2.00000
      3       0.6586      2.00000
      4       1.5425      2.00000
      5       7.5085      0.00000
      6       8.6038      0.00000
      7       8.8279      0.00000
      8      11.3137      0.00000

 k-point   393 :      -0.3333    0.3750    0.1667
  band No.  band energies     occupation 
      1      -4.0913      2.00000
      2      -2.6487      2.00000
      3       0.5819      2.00000
      4       1.5238      2.00000
      5       7.6153      0.00000
      6       8.4666      0.00000
      7       9.5621      0.00000
      8      10.5099      0.00000

 k-point   394 :      -0.2917    0.3750    0.1667
  band No.  band energies     occupation 
      1      -4.1382      2.00000
      2      -2.5967      2.00000
      3       0.5534      2.00000
      4       1.5710      2.00000
      5       7.7410      0.00000
      6       8.3463      0.00000
      7       9.7125      0.00000
      8      10.3868      0.00000

 k-point   395 :      -0.2500    0.3750    0.1667
  band No.  band energies     occupation 
      1      -4.3403      2.00000
      2      -2.3767      2.00000
      3       0.5837      2.00000
      4       1.6765      2.00000
      5       7.8884      0.00000
      6       8.2191      0.00000
      7       9.0338      0.00000
      8      11.2134      0.00000

 k-point   396 :      -0.2083    0.3750    0.1667
  band No.  band energies     occupation 
      1      -4.6072      2.00000
      2      -2.0855      2.00000
      3       0.6849      2.00000
      4       1.8286      2.00000
      5       7.9548      0.00000
      6       8.0501      0.00000
      7       8.5862      0.00000
      8      11.7801      0.00000

 k-point   397 :      -0.4167    0.4167    0.1667
  band No.  band energies     occupation 
      1      -4.3197      2.00000
      2      -2.3896      2.00000
      3       0.8854      2.00000
      4       1.4396      2.00000
      5       7.1061      0.00000
      6       7.5488      0.00000
      7       9.5136      0.00000
      8      12.1796      0.00000

 k-point   398 :      -0.3750    0.4167    0.1667
  band No.  band energies     occupation 
      1      -4.0507      2.00000
      2      -2.6660      2.00000
      3       0.7529      2.00000
      4       1.3228      2.00000
      5       7.3345      0.00000
      6       8.0178      0.00000
      7       9.3533      0.00000
      8      11.4180      0.00000

 k-point   399 :      -0.3333    0.4167    0.1667
  band No.  band energies     occupation 
      1      -3.8628      2.00000
      2      -2.8535      2.00000
      3       0.6272      2.00000
      4       1.3057      2.00000
      5       7.4483      0.00000
      6       8.7070      0.00000
      7       9.2147      0.00000
      8      10.5897      0.00000

 k-point   400 :      -0.2917    0.4167    0.1667
  band No.  band energies     occupation 
      1      -3.8767      2.00000
      2      -2.8350      2.00000
      3       0.5398      2.00000
      4       1.3715      2.00000
      5       7.5725      0.00000
      6       9.0425      0.00000
      7       9.5088      0.00000
      8       9.8186      0.00000

 k-point   401 :      -0.2500    0.4167    0.1667
  band No.  band energies     occupation 
      1      -4.0755      2.00000
      2      -2.6341      2.00000
      3       0.5192      2.00000
      4       1.5002      2.00000
      5       7.7214      0.00000
      6       8.8004      0.00000
      7       9.2008      0.00000
      8      10.3565      0.00000

 k-point   402 :      -0.3750    0.4583    0.1667
  band No.  band energies     occupation 
      1      -3.8549      2.00000
      2      -2.8817      2.00000
      3       0.9063      2.00000
      4       1.1816      2.00000
      5       7.1253      0.00000
      6       7.3450      0.00000
      7      10.1514      0.00000
      8      11.5405      0.00000

 k-point   403 :      -0.3333    0.4583    0.1667
  band No.  band energies     occupation 
      1      -3.6230      2.00000
      2      -3.0998      2.00000
      3       0.7757      2.00000
      4       1.1306      2.00000
      5       7.3089      0.00000
      6       7.9235      0.00000
      7       9.9996      0.00000
      8      10.6991      0.00000

 k-point   404 :      -0.2917    0.4583    0.1667
  band No.  band energies     occupation 
      1      -3.6468      2.00000
      2      -3.0641      2.00000
      3       0.6232      2.00000
      4       1.2181      2.00000
      5       7.4275      0.00000
      6       8.6720      0.00000
      7       9.7893      0.00000
      8       9.9670      0.00000

 k-point   405 :      -0.3333    0.5000    0.1667
  band No.  band energies     occupation 
      1      -3.3728      2.00000
      2      -3.3728      2.00000
      3       1.0040      2.00000
      4       1.0040      2.00000
      5       7.2041      0.00000
      6       7.2041      0.00000
      7      10.8324      0.00000
      8      10.8324      0.00000

 k-point   406 :      -0.3750    0.4167    0.2083
  band No.  band energies     occupation 
      1      -4.2019      2.00000
      2      -2.5010      2.00000
      3       0.6673      2.00000
      4       1.4386      2.00000
      5       7.9211      0.00000
      6       8.3335      0.00000
      7       8.5893      0.00000
      8      11.3038      0.00000

 k-point   407 :      -0.3333    0.4167    0.2083
  band No.  band energies     occupation 
      1      -3.9603      2.00000
      2      -2.7446      2.00000
      3       0.6095      2.00000
      4       1.3102      2.00000
      5       8.1612      0.00000
      6       8.4255      0.00000
      7       8.8797      0.00000
      8      10.4573      0.00000

 k-point   408 :      -0.2917    0.4167    0.2083
  band No.  band energies     occupation 
      1      -3.8503      2.00000
      2      -2.8557      2.00000
      3       0.5922      2.00000
      4       1.2645      2.00000
      5       8.2761      0.00000
      6       8.3014      0.00000
      7       9.5442      0.00000
      8       9.7244      0.00000

 k-point   409 :      -0.3333    0.4583    0.2083
  band No.  band energies     occupation 
      1      -3.7806      2.00000
      2      -2.9236      2.00000
      3       0.7312      2.00000
      4       1.1184      2.00000
      5       7.9386      0.00000
      6       8.1423      0.00000
      7       9.1932      0.00000
      8      10.5629      0.00000

 k-point   410 :      -0.2917    0.4583    0.2083
  band No.  band energies     occupation 
      1      -3.6028      2.00000
      2      -3.0926      2.00000
      3       0.6954      2.00000
      4       1.0463      2.00000
      5       8.1339      0.00000
      6       8.7633      0.00000
      7       9.0697      0.00000
      8       9.7356      0.00000

 k-point   411 :      -0.2500    0.4583    0.2083
  band No.  band energies     occupation 
      1      -3.7090      2.00000
      2      -2.9855      2.00000
      3       0.6325      2.00000
      4       1.1315      2.00000
      5       8.2670      0.00000
      6       8.8119      0.00000
      7       9.0340      0.00000
      8       9.6189      0.00000

 k-point   412 :      -0.2917    0.5000    0.2083
  band No.  band energies     occupation 
      1      -3.3518      2.00000
      2      -3.3518      2.00000
      3       0.8811      2.00000
      4       0.8811      2.00000
      5       8.0113      0.00000
      6       8.0113      0.00000
      7       9.8539      0.00000
      8       9.8539      0.00000

 k-point   413 :      -0.2500    0.5000    0.2500
  band No.  band energies     occupation 
      1      -3.3440      2.00000
      2      -3.3440      2.00000
      3       0.8379      2.00000
      4       0.8379      2.00000
      5       8.7929      0.00000
      6       8.7929      0.00000
      7       9.0152      0.00000
      8       9.0152      0.00000


--------------------------------------------------------------------------------------------------------


 soft charge-density along one line, spin component           1
         0         1         2         3         4         5         6         7         8         9
 total charge-density along one line
 
 pseudopotential strength for first ion, spin component:           1
 18.391  25.659  -0.000   0.000   0.000  -0.000   0.000   0.000
 25.659  35.803  -0.000   0.000   0.000  -0.000   0.000   0.000
 -0.000  -0.000   4.179   0.000   0.000   7.791   0.000   0.000
  0.000   0.000   0.000   4.179   0.000   0.000   7.791   0.000
  0.000   0.000   0.000   0.000   4.179   0.000   0.000   7.791
 -0.000  -0.000   7.791   0.000   0.000  14.533   0.000   0.000
  0.000   0.000   0.000   7.791   0.000   0.000  14.533   0.000
  0.000   0.000   0.000   0.000   7.791   0.000   0.000  14.533
 total augmentation occupancy for first ion, spin component:           1
  7.625  -3.198   0.000  -0.000  -0.000  -0.000  -0.000   0.000
 -3.198   1.410  -0.000   0.000   0.000  -0.000  -0.000  -0.000
  0.000   0.000   3.356  -0.000  -0.000  -0.871  -0.000   0.000
  0.000   0.000  -0.000   3.356  -0.000  -0.000  -0.871  -0.000
 -0.000   0.000  -0.000  -0.000   3.356   0.000  -0.000  -0.871
 -0.000  -0.000  -0.871  -0.000  -0.000   0.231   0.000  -0.000
 -0.000  -0.000  -0.000  -0.871  -0.000   0.000   0.231   0.000
  0.000  -0.000   0.000   0.000  -0.871  -0.000  -0.000   0.231


------------------------ aborting loop because EDIFF is reached ----------------------------------------


 


 total charge     
 
# of ion       s       p       d       tot
------------------------------------------
    1        0.749   0.859   0.000   1.608
    2        0.749   0.859   0.000   1.608
--------------------------------------------------
tot          1.498   1.718   0.000   3.216
 
    CHARGE:  cpu time    0.0644: real time    0.0647
    FORLOC:  cpu time    0.0006: real time    0.0006
    FORNL :  cpu time    0.1397: real time    0.1397
    STRESS:  cpu time    8.8842: real time    8.8875
    FORCOR:  cpu time    0.0606: real time    0.0607
    FORHAR:  cpu time    0.0031: real time    0.0031
    MIXING:  cpu time    0.0028: real time    0.0028
    OFIELD:  cpu time    0.0000: real time    0.0000

  FORCE on cell =-STRESS in cart. coord.  units (eV):
  Direction    XX          YY          ZZ          XY          YZ          ZX
  --------------------------------------------------------------------------------------
  Alpha Z     2.86293     2.86293     2.86293
  Ewald     -72.19898   -72.19898   -72.19898     0.00000    -0.00000     0.00000
  Hartree     5.60834     5.60834     5.60834     0.00000     0.00000     0.00000
  E(xc)     -23.55896   -23.66082   -23.69096     0.11201    -0.02088     0.04543
  Local     -31.20838   -31.20838   -31.20838     0.00000     0.00000     0.00000
  n-local    73.76829    75.32427    69.80956     1.92040    -1.10370     0.40182
  augment   -10.58612   -10.58612   -10.58612    -0.00000    -0.00000    -0.00000
  Kinetic    55.08217    53.55712    50.40127     3.50408    -0.99037     1.06213
  Fock        0.00000     0.00000     0.00000     0.00000     0.00000     0.00000
  -------------------------------------------------------------------------------------
  Total      -3.17823    -3.17823    -3.17823    -0.00000     0.00000    -0.00000
  in kB    -108.26603  -108.26603  -108.26603    -0.00000     0.00000    -0.00000
  external pressure =     -108.27 kB  Pullay stress =        0.00 kB


 VOLUME and BASIS-vectors are now :
 -----------------------------------------------------------------------------
  energy-cutoff  :      800.00
  volume of cell :       47.03
      direct lattice vectors                 reciprocal lattice vectors
     0.000000000  2.865000000  2.865000000    -0.174520070  0.174520070  0.174520070
     2.865000000  0.000000000  2.865000000     0.174520070 -0.174520070  0.174520070
     2.865000000  2.865000000  0.000000000     0.174520070  0.174520070 -0.174520070

  length of vectors
     4.051721856  4.051721856  4.051721856     0.302277628  0.302277628  0.302277628


 FORCES acting on ions
    electron-ion (+dipol)            ewald-force                    non-local-force                 convergence-correction
 -----------------------------------------------------------------------------------------------
   -.143E-07 -.143E-07 -.150E-07   -.203E-14 0.118E-14 0.127E-14   0.382E-16 -.625E-16 -.763E-16   -.124E-10 -.124E-10 -.124E-10
   0.143E-07 0.143E-07 0.150E-07   0.204E-14 -.128E-14 -.127E-14   0.451E-16 0.555E-16 0.937E-16   0.124E-10 0.124E-10 0.124E-10
 -----------------------------------------------------------------------------------------------
   0.372E-13 -.782E-13 -.627E-13   0.851E-17 -.103E-15 -.309E-17   0.833E-16 -.694E-17 0.173E-16   -.310E-14 -.312E-14 -.268E-14
 
 
 POSITION                                       TOTAL-FORCE (eV/Angst)
 -----------------------------------------------------------------------------------
      5.01375      5.01375      5.01375        -0.000000     -0.000000     -0.000000
      0.71625      0.71625      0.71625         0.000000      0.000000      0.000000
 -----------------------------------------------------------------------------------
    total drift:                                0.000000     -0.000000     -0.000000


--------------------------------------------------------------------------------------------------------



  FREE ENERGIE OF THE ION-ELECTRON SYSTEM (eV)
  ---------------------------------------------------
  free  energy   TOTEN  =       -17.28631801 eV

  energy  without entropy=      -17.28631801  energy(sigma->0) =      -17.28631801
 


--------------------------------------------------------------------------------------------------------


    POTLOK:  cpu time    0.3941: real time    0.3941


--------------------------------------------------------------------------------------------------------


     LOOP+:  cpu time   59.8127: real time   59.9182
    4ORBIT:  cpu time    0.0000: real time    0.0000
 


 total charge     
 
# of ion       s       p       d       tot
------------------------------------------
    1        0.749   0.859   0.000   1.608
    2        0.749   0.859   0.000   1.608
--------------------------------------------------
tot          1.498   1.718   0.000   3.216
 
 BZINTS: Fermi energy:    5.218177;    8.000000 electrons
         Band energy:-0.505031E+01;  BLOECHL correction:    0.000000

 total amount of memory used by VASP MPI-rank0    49216. kBytes
=======================================================================

   base      :      30000. kBytes
   nonl-proj :       6563. kBytes
   fftplans  :       3963. kBytes
   grid      :       1921. kBytes
   one-center:          3. kBytes
   wavefun   :       6766. kBytes
 
  
  
 General timing and accounting informations for this job:
 ========================================================
  
                  Total CPU time used (sec):       62.212
                            User time (sec):       61.986
                          System time (sec):        0.226
                         Elapsed time (sec):       62.646
  
                   Maximum memory used (kb):      140876.
                   Average memory used (kb):           0.
  
                          Minor page faults:        49773
                          Major page faults:            8
                 Voluntary context switches:         1644
