C                                       
   3.56249068728843     
     0.000000    0.500000    0.500000
     0.500000    0.000000    0.500000
     0.500000    0.500000    0.000000
   C 
     2
Direct
  0.875000  0.875000  0.875000
  0.125000  0.125000  0.125000
 
   48   48   48
  18.688      18.719      18.799      18.894      18.968      18.981      18.904      18.730      18.481      18.198    
  17.938      17.756      17.690      17.756      17.938      18.198      18.481      18.730      18.904      18.981    
  18.968      18.894      18.799      18.719      18.688      18.719      18.799      18.894      18.968      18.981    
  18.904      18.730      18.481      18.198      17.938      17.756      17.690      17.756      17.938      18.198    
  18.481      18.730      18.904      18.981      18.968      18.894      18.799      18.719      18.719      18.973    
  19.242      19.483      19.649      19.695      19.604      19.386      19.084      18.764      18.498      18.348    
  18.348      18.498      18.764      19.084      19.386      19.604      19.696      19.649      19.483      19.242    
  18.973      18.719      18.515      18.376      18.289      18.223      18.147      18.030      17.857      17.628    
  17.369      17.118      16.919      16.809      16.809      16.919      17.118      17.369      17.628      17.857    
  18.030      18.147      18.223      18.289      18.376      18.515      18.799      19.242      19.659      19.993    
  20.189      20.209      20.052      19.753      19.384      19.031      18.779      18.687      18.779      19.031    
  19.384      19.753      20.052      20.209      20.189      19.993      19.659      19.242      18.799      18.376    
  18.009      17.713      17.477      17.273      17.072      16.854      16.612      16.352      16.100      15.887    
  15.743      15.692      15.743      15.886      16.100      16.352      16.612      16.854      17.072      17.273    
  17.477      17.713      18.009      18.376      18.894      19.483      19.993      20.356      20.518      20.458    
  20.198      19.805      19.376      19.015      18.809      18.809      19.015      19.376      19.805      20.198    
  20.458      20.518      20.356      19.993      19.483      18.894      18.289      17.713      17.205      16.777    
  16.418      16.103      15.808      15.519      15.234      14.964      14.731      14.557      14.464      14.464    
  14.557      14.731      14.964      15.234      15.519      15.808      16.103      16.418      16.777      17.205    
  17.713      18.289      18.968      19.649      20.189      20.518      20.594      20.419      20.047      19.572    
  19.115      18.786      18.667      18.786      19.115      19.572      20.047      20.419      20.594      20.518    
  20.189      19.649      18.968      18.223      17.477      16.777      16.157      15.627      15.177      14.783    
  14.426      14.094      13.792      13.529      13.323      13.191      13.146      13.191      13.323      13.529    
  13.792      14.095      14.426      14.783      15.177      15.627      16.157      16.777      17.477      18.223    
  18.981      19.695      20.209      20.458      20.419      20.125      19.658      19.141      18.704      18.454    
  18.454      18.704      19.141      19.658      20.125      20.419      20.458      20.209      19.695      18.981    
  18.147      17.273      16.418      15.627      14.931      14.334      13.823      13.381      12.991      12.645    
  12.346      12.105      11.935      11.846      11.846      11.935      12.105      12.346      12.645      12.991    
  13.382      13.824      14.334      14.931      15.627      16.418      17.273      18.147      18.904      19.604    
  20.052      20.198      20.047      19.658      19.144      18.640      18.275      18.143      18.275      18.640    
  19.144      19.658      20.047      20.198      20.052      19.604      18.904      18.030      17.072      16.103    
  15.177      14.334      13.596      12.965      12.426      11.963      11.564      11.225      10.947      10.739    
  10.609      10.565      10.609      10.739      10.947      11.225      11.565      11.963      12.426      12.965    
  13.596      14.334      15.177      16.103      17.072      18.030      18.730      19.386      19.753      19.805    
  19.572      19.141      18.640      18.206      17.957      17.957      18.206      18.640      19.141      19.572    
  19.805      19.753      19.386      18.730      17.857      16.854      15.808      14.783      13.823      12.965    
  12.220      11.584      11.043      10.584      10.196      9.8774      9.6312      9.4625      9.3766      9.3766    
  9.4625      9.6312      9.8774      10.196      10.584      11.043      11.585      12.220      12.965      13.824    
  14.783      15.808      16.854      17.857      18.481      19.084      19.384      19.376      19.115      18.704    
  18.275      17.957      17.839      17.957      18.275      18.704      19.115      19.376      19.384      19.084    
  18.481      17.628      16.612      15.519      14.426      13.382      12.426      11.585      10.860      10.243    
  9.7214      9.2828      8.9212      8.6355      8.4276      8.3011      8.2585      8.3011      8.4276      8.6355    
  8.9212      9.2828      9.7214      10.243      10.860      11.585      12.426      13.382      14.426      15.519    
  16.612      17.628      18.198      18.764      19.031      19.015      18.786      18.454      18.143      17.957    
  17.957      18.143      18.454      18.786      19.015      19.031      18.764      18.198      17.369      16.352    
  15.234      14.095      12.991      11.963      11.043      10.243      9.5590      8.9791      8.4915      8.0875    
  7.7630      7.5173      7.3519      7.2686      7.2686      7.3519      7.5173      7.7630      8.0875      8.4915    
  8.9790      9.5590      10.243      11.043      11.963      12.991      14.095      15.234      16.352      17.369    
  17.938      18.498      18.779      18.809      18.667      18.454      18.275      18.206      18.275      18.454    
  18.667      18.809      18.779      18.498      17.938      17.118      16.100      14.964      13.792      12.645    
  11.565      10.584      9.7214      8.9790      8.3477      7.8155      7.3721      7.0113      6.7303      6.5287    
  6.4072      6.3666      6.4072      6.5287      6.7303      7.0113      7.3721      7.8155      8.3477      8.9790    
  9.7214      10.584      11.565      12.645      13.792      14.964      16.100      17.118      17.756      18.348    
  18.687      18.809      18.786      18.704      18.640      18.640      18.704      18.786      18.809      18.687    
  18.348      17.756      16.919      15.886      14.731      13.529      12.346      11.225      10.196      9.2828    
  8.4914      7.8155      7.2435      6.7647      6.3710      6.0578      5.8232      5.6668      5.5886      5.5886    
  5.6668      5.8232      6.0578      6.3710      6.7647      7.2435      7.8155      8.4915      9.2828      10.196    
  11.225      12.346      13.529      14.731      15.886      16.919      17.690      18.348      18.779      19.015    
  19.115      19.141      19.144      19.141      19.115      19.015      18.779      18.348      17.690      16.809    
  15.743      14.557      13.323      12.105      10.947      9.8774      8.9212      8.0875      7.3721      6.7647    
  6.2539      5.8303      5.4881      5.2238      5.0359      4.9234      4.8860      4.9234      5.0359      5.2238    
  5.4881      5.8303      6.2539      6.7647      7.3721      8.0875      8.9212      9.8774      10.947      12.105    
  13.323      14.557      15.743      16.809      17.756      18.498      19.031      19.376      19.572      19.658    
  19.658      19.572      19.376      19.031      18.498      17.756      16.809      15.692      14.464      13.191    
  11.935      10.739      9.6312      8.6355      7.7630      7.0113      6.3710      5.8303      5.3792      5.0103    
  4.7191      4.5027      4.3595      4.2882      4.2882      4.3595      4.5027      4.7191      5.0103      5.3792    
  5.8303      6.3710      7.0113      7.7630      8.6355      9.6312      10.739      11.935      13.191      14.464    
  15.692      16.809      17.938      18.764      19.384      19.805      20.047      20.125      20.047      19.805    
  19.384      18.764      17.938      16.919      15.743      14.464      13.146      11.846      10.609      9.4625    
  8.4276      7.5173      6.7303      6.0578      5.4881      5.0103      4.6161      4.2997      4.0572      3.8861    
  3.7844      3.7506      3.7844      3.8861      4.0572      4.2997      4.6161      5.0103      5.4881      6.0578    
  6.7303      7.5173      8.4276      9.4625      10.609      11.846      13.146      14.464      15.743      16.919    
  18.198      19.084      19.753      20.198      20.419      20.419      20.198      19.753      19.084      18.198    
  17.118      15.886      14.557      13.191      11.846      10.565      9.3766      8.3011      7.3519      6.5287    
  5.8232      5.2238      4.7191      4.2997      3.9588      3.6917      3.4949      3.3655      3.3014      3.3014    
  3.3655      3.4949      3.6917      3.9588      4.2997      4.7191      5.2238      5.8232      6.5287      7.3519    
  8.3011      9.3766      10.565      11.846      13.191      14.557      15.887      17.118      18.481      19.386    
  20.052      20.458      20.594      20.458      20.052      19.386      18.481      17.369      16.100      14.731    
  13.323      11.935      10.609      9.3766      8.2585      7.2686      6.4072      5.6668      5.0359      4.5027    
  4.0572      3.6917      3.4005      3.1793      3.0243      2.9327      2.9024      2.9327      3.0243      3.1793    
  3.4005      3.6917      4.0572      4.5027      5.0359      5.6668      6.4072      7.2686      8.2585      9.3766    
  10.609      11.935      13.323      14.731      16.100      17.369      18.730      19.604      20.209      20.518    
  20.518      20.209      19.604      18.730      17.628      16.352      14.964      13.529      12.105      10.739    
  9.4625      8.3011      7.2686      6.3666      5.5886      4.9234      4.3595      3.8861      3.4949      3.1793    
  2.9340      2.7548      2.6377      2.5800      2.5800      2.6377      2.7548      2.9340      3.1793      3.4949    
  3.8861      4.3595      4.9234      5.5886      6.3666      7.2686      8.3011      9.4625      10.739      12.105    
  13.529      14.964      16.352      17.628      18.904      19.696      20.189      20.356      20.189      19.695    
  18.904      17.857      16.612      15.234      13.792      12.346      10.947      9.6312      8.4276      7.3519    
  6.4072      5.5886      4.8860      4.2882      3.7844      3.3655      3.0243      2.7548      2.5517      2.4104    
  2.3274      2.3000      2.3274      2.4104      2.5517      2.7548      3.0243      3.3655      3.7844      4.2882    
  4.8860      5.5886      6.4072      7.3519      8.4276      9.6312      10.947      12.346      13.792      15.234    
  16.612      17.857      18.981      19.649      19.993      19.993      19.649      18.981      18.030      16.854    
  15.519      14.095      12.645      11.225      9.8774      8.6355      7.5173      6.5287      5.6668      4.9234    
  4.2882      3.7506      3.3014      2.9327      2.6377      2.4104      2.2456      2.1385      2.0859      2.0859    
  2.1385      2.2456      2.4104      2.6377      2.9327      3.3014      3.7506      4.2882      4.9234      5.6668    
  6.5287      7.5173      8.6355      9.8774      11.225      12.645      14.094      15.519      16.854      18.030    
  18.968      19.483      19.659      19.483      18.968      18.147      17.072      15.808      14.426      12.991    
  11.565      10.196      8.9212      7.7630      6.7303      5.8232      5.0359      4.3595      3.7844      3.3014    
  2.9024      2.5800      2.3274      2.1385      2.0080      1.9316      1.9064      1.9316      2.0080      2.1385    
  2.3274      2.5800      2.9024      3.3014      3.7844      4.3595      5.0359      5.8232      6.7303      7.7630    
  8.9212      10.196      11.564      12.991      14.426      15.808      17.072      18.147      18.894      19.242    
  19.242      18.894      18.223      17.273      16.103      14.783      13.382      11.963      10.584      9.2828    
  8.0875      7.0113      6.0578      5.2238      4.5027      3.8861      3.3655      2.9327      2.5800      2.3000    
  2.0859      1.9316      1.8318      1.7829      1.7829      1.8318      1.9316      2.0859      2.3000      2.5800    
  2.9327      3.3655      3.8861      4.5027      5.2238      6.0578      7.0113      8.0875      9.2828      10.584    
  11.963      13.381      14.783      16.103      17.273      18.223      18.799      18.973      18.799      18.289    
  17.477      16.418      15.177      13.823      12.426      11.043      9.7214      8.4914      7.3721      6.3710    
  5.4881      4.7191      4.0572      3.4949      3.0243      2.6377      2.3274      2.0859      1.9064      1.7829    
  1.7108      1.6871      1.7108      1.7829      1.9064      2.0859      2.3274      2.6377      3.0243      3.4949    
  4.0572      4.7191      5.4881      6.3710      7.3721      8.4915      9.7214      11.043      12.426      13.823    
  15.177      16.418      17.477      18.289      18.719      18.719      18.376      17.713      16.777      15.627    
  14.334      12.965      11.585      10.243      8.9790      7.8155      6.7647      5.8303      5.0103      4.2997    
  3.6917      3.1793      2.7548      2.4104      2.1385      1.9316      1.7829      1.6871      1.6402      1.6402    
  1.6871      1.7829      1.9316      2.1385      2.4104      2.7548      3.1793      3.6917      4.2997      5.0103    
  5.8303      6.7647      7.8155      8.9791      10.243      11.584      12.965      14.334      15.627      16.777    
  17.713      18.376      18.688      18.515      18.009      17.205      16.157      14.931      13.596      12.220    
  10.860      9.5590      8.3477      7.2435      6.2539      5.3792      4.6161      3.9588      3.4005      2.9340    
  2.5517      2.2456      2.0080      1.8318      1.7108      1.6402      1.6170      1.6402      1.7108      1.8318    
  2.0080      2.2456      2.5517      2.9340      3.4005      3.9588      4.6161      5.3792      6.2539      7.2435    
  8.3477      9.5590      10.860      12.220      13.596      14.931      16.157      17.205      18.009      18.515    
  18.719      18.376      17.713      16.777      15.627      14.334      12.965      11.584      10.243      8.9791    
  7.8155      6.7647      5.8303      5.0103      4.2997      3.6917      3.1793      2.7548      2.4104      2.1385    
  1.9316      1.7829      1.6871      1.6402      1.6402      1.6871      1.7829      1.9316      2.1385      2.4104    
  2.7548      3.1793      3.6917      4.2997      5.0103      5.8303      6.7647      7.8155      8.9790      10.243    
  11.585      12.965      14.334      15.627      16.777      17.713      18.376      18.719      18.799      18.289    
  17.477      16.418      15.177      13.823      12.426      11.043      9.7214      8.4915      7.3721      6.3710    
  5.4881      4.7191      4.0572      3.4949      3.0243      2.6377      2.3274      2.0859      1.9064      1.7829    
  1.7108      1.6871      1.7108      1.7829      1.9064      2.0859      2.3274      2.6377      3.0243      3.4949    
  4.0572      4.7191      5.4881      6.3710      7.3721      8.4914      9.7214      11.043      12.426      13.823    
  15.177      16.418      17.477      18.289      18.799      18.973      18.894      18.223      17.273      16.103    
  14.783      13.381      11.963      10.584      9.2828      8.0875      7.0113      6.0578      5.2238      4.5027    
  3.8861      3.3655      2.9327      2.5800      2.3000      2.0859      1.9316      1.8318      1.7829      1.7829    
  1.8318      1.9316      2.0859      2.3000      2.5800      2.9327      3.3655      3.8861      4.5027      5.2238    
  6.0578      7.0113      8.0875      9.2828      10.584      11.963      13.382      14.783      16.103      17.273    
  18.223      18.894      19.242      19.242      18.968      18.147      17.072      15.808      14.426      12.991    
  11.564      10.196      8.9212      7.7630      6.7303      5.8232      5.0359      4.3595      3.7844      3.3014    
  2.9024      2.5800      2.3274      2.1385      2.0080      1.9316      1.9064      1.9316      2.0080      2.1385    
  2.3274      2.5800      2.9024      3.3014      3.7844      4.3595      5.0359      5.8232      6.7303      7.7630    
  8.9212      10.196      11.565      12.991      14.426      15.808      17.072      18.147      18.968      19.483    
  19.659      19.483      18.981      18.030      16.854      15.519      14.094      12.645      11.225      9.8774    
  8.6355      7.5173      6.5287      5.6668      4.9234      4.2882      3.7506      3.3014      2.9327      2.6377    
  2.4104      2.2456      2.1385      2.0859      2.0859      2.1385      2.2456      2.4104      2.6377      2.9327    
  3.3014      3.7506      4.2882      4.9234      5.6668      6.5287      7.5173      8.6355      9.8774      11.225    
  12.645      14.095      15.519      16.854      18.030      18.981      19.649      19.993      19.993      19.649    
  18.904      17.857      16.612      15.234      13.792      12.346      10.947      9.6312      8.4276      7.3519    
  6.4072      5.5886      4.8860      4.2882      3.7844      3.3655      3.0243      2.7548      2.5517      2.4104    
  2.3274      2.3000      2.3274      2.4104      2.5517      2.7548      3.0243      3.3655      3.7844      4.2882    
  4.8860      5.5886      6.4072      7.3519      8.4276      9.6312      10.947      12.346      13.792      15.234    
  16.612      17.857      18.904      19.695      20.189      20.356      20.189      19.696      18.730      17.628    
  16.352      14.964      13.529      12.105      10.739      9.4625      8.3011      7.2686      6.3666      5.5886    
  4.9234      4.3595      3.8861      3.4949      3.1793      2.9340      2.7548      2.6377      2.5800      2.5800    
  2.6377      2.7548      2.9340      3.1793      3.4949      3.8861      4.3595      4.9234      5.5886      6.3666    
  7.2686      8.3011      9.4625      10.739      12.105      13.529      14.964      16.352      17.628      18.730    
  19.604      20.209      20.518      20.518      20.209      19.604      18.481      17.369      16.100      14.731    
  13.323      11.935      10.609      9.3766      8.2585      7.2686      6.4072      5.6668      5.0359      4.5027    
  4.0572      3.6917      3.4005      3.1793      3.0243      2.9327      2.9024      2.9327      3.0243      3.1793    
  3.4005      3.6917      4.0572      4.5027      5.0359      5.6668      6.4072      7.2686      8.2585      9.3766    
  10.609      11.935      13.323      14.731      16.100      17.369      18.481      19.386      20.052      20.458    
  20.594      20.458      20.052      19.386      18.198      17.118      15.887      14.557      13.191      11.846    
  10.565      9.3766      8.3011      7.3519      6.5287      5.8232      5.2238      4.7191      4.2997      3.9588    
  3.6917      3.4949      3.3655      3.3014      3.3014      3.3655      3.4949      3.6917      3.9588      4.2997    
  4.7191      5.2238      5.8232      6.5287      7.3519      8.3011      9.3766      10.565      11.846      13.191    
  14.557      15.886      17.118      18.198      19.084      19.753      20.198      20.419      20.419      20.198    
  19.753      19.084      17.938      16.919      15.743      14.464      13.146      11.846      10.609      9.4625    
  8.4276      7.5173      6.7303      6.0578      5.4881      5.0103      4.6161      4.2997      4.0572      3.8861    
  3.7844      3.7506      3.7844      3.8861      4.0572      4.2997      4.6161      5.0103      5.4881      6.0578    
  6.7303      7.5173      8.4276      9.4625      10.609      11.846      13.146      14.464      15.743      16.919    
  17.938      18.764      19.384      19.805      20.047      20.125      20.047      19.805      19.384      18.764    
  17.756      16.809      15.692      14.464      13.191      11.935      10.739      9.6312      8.6355      7.7630    
  7.0113      6.3710      5.8303      5.3792      5.0103      4.7191      4.5027      4.3595      4.2882      4.2882    
  4.3595      4.5027      4.7191      5.0103      5.3792      5.8303      6.3710      7.0113      7.7630      8.6355    
  9.6312      10.739      11.935      13.191      14.464      15.692      16.809      17.756      18.498      19.031    
  19.376      19.572      19.658      19.658      19.572      19.376      19.031      18.498      17.690      16.809    
  15.743      14.557      13.323      12.105      10.947      9.8774      8.9212      8.0875      7.3721      6.7647    
  6.2539      5.8303      5.4881      5.2238      5.0359      4.9234      4.8860      4.9234      5.0359      5.2238    
  5.4881      5.8303      6.2539      6.7647      7.3721      8.0875      8.9212      9.8774      10.947      12.105    
  13.323      14.557      15.743      16.809      17.690      18.348      18.779      19.015      19.115      19.141    
  19.144      19.141      19.115      19.015      18.779      18.348      17.756      16.919      15.886      14.731    
  13.529      12.346      11.225      10.196      9.2828      8.4915      7.8155      7.2435      6.7647      6.3710    
  6.0578      5.8232      5.6668      5.5886      5.5886      5.6668      5.8232      6.0578      6.3710      6.7647    
  7.2435      7.8155      8.4914      9.2828      10.196      11.225      12.346      13.529      14.731      15.886    
  16.919      17.756      18.348      18.687      18.809      18.786      18.704      18.640      18.640      18.704    
  18.786      18.809      18.687      18.348      17.938      17.118      16.100      14.964      13.792      12.645    
  11.565      10.584      9.7214      8.9790      8.3477      7.8155      7.3721      7.0113      6.7303      6.5287    
  6.4072      6.3666      6.4072      6.5287      6.7303      7.0113      7.3721      7.8155      8.3477      8.9790    
  9.7214      10.584      11.565      12.645      13.792      14.964      16.100      17.118      17.938      18.498    
  18.779      18.809      18.667      18.454      18.275      18.206      18.275      18.454      18.667      18.809    
  18.779      18.498      18.198      17.369      16.352      15.234      14.095      12.991      11.963      11.043    
  10.243      9.5590      8.9790      8.4915      8.0875      7.7630      7.5173      7.3519      7.2686      7.2686    
  7.3519      7.5173      7.7630      8.0875      8.4915      8.9791      9.5590      10.243      11.043      11.963    
  12.991      14.095      15.234      16.352      17.369      18.198      18.764      19.031      19.015      18.786    
  18.454      18.143      17.957      17.957      18.143      18.454      18.786      19.015      19.031      18.764    
  18.481      17.628      16.612      15.519      14.426      13.382      12.426      11.585      10.860      10.243    
  9.7214      9.2828      8.9212      8.6355      8.4276      8.3011      8.2585      8.3011      8.4276      8.6355    
  8.9212      9.2828      9.7214      10.243      10.860      11.585      12.426      13.382      14.426      15.519    
  16.612      17.628      18.481      19.084      19.384      19.376      19.115      18.704      18.275      17.957    
  17.839      17.957      18.275      18.704      19.115      19.376      19.384      19.084      18.730      17.857    
  16.854      15.808      14.783      13.824      12.965      12.220      11.585      11.043      10.584      10.196    
  9.8774      9.6312      9.4625      9.3766      9.3766      9.4625      9.6312      9.8774      10.196      10.584    
  11.043      11.584      12.220      12.965      13.823      14.783      15.808      16.854      17.857      18.730    
  19.386      19.753      19.805      19.572      19.141      18.640      18.206      17.957      17.957      18.206    
  18.640      19.141      19.572      19.805      19.753      19.386      18.904      18.030      17.072      16.103    
  15.177      14.334      13.596      12.965      12.426      11.963      11.565      11.225      10.947      10.739    
  10.609      10.565      10.609      10.739      10.947      11.225      11.564      11.963      12.426      12.965    
  13.596      14.334      15.177      16.103      17.072      18.030      18.904      19.604      20.052      20.198    
  20.047      19.658      19.144      18.640      18.275      18.143      18.275      18.640      19.144      19.658    
  20.047      20.198      20.052      19.604      18.981      18.147      17.273      16.418      15.627      14.931    
  14.334      13.824      13.382      12.991      12.645      12.346      12.105      11.935      11.846      11.846    
  11.935      12.105      12.346      12.645      12.991      13.381      13.823      14.334      14.931      15.627    
  16.418      17.273      18.147      18.981      19.695      20.209      20.458      20.419      20.125      19.658    
  19.141      18.704      18.454      18.454      18.704      19.141      19.658      20.125      20.419      20.458    
  20.209      19.695      18.968      18.223      17.477      16.777      16.157      15.627      15.177      14.783    
  14.426      14.095      13.792      13.529      13.323      13.191      13.146      13.191      13.323      13.529    
  13.792      14.094      14.426      14.783      15.177      15.627      16.157      16.777      17.477      18.223    
  18.968      19.649      20.189      20.518      20.594      20.419      20.047      19.572      19.115      18.786    
  18.667      18.786      19.115      19.572      20.047      20.419      20.594      20.518      20.189      19.649    
  18.894      18.289      17.713      17.205      16.777      16.418      16.103      15.808      15.519      15.234    
  14.964      14.731      14.557      14.464      14.464      14.557      14.731      14.964      15.234      15.519    
  15.808      16.103      16.418      16.777      17.205      17.713      18.289      18.894      19.483      19.993    
  20.356      20.518      20.458      20.198      19.805      19.376      19.015      18.809      18.809      19.015    
  19.376      19.805      20.198      20.458      20.518      20.356      19.993      19.483      18.799      18.376    
  18.009      17.713      17.477      17.273      17.072      16.854      16.612      16.352      16.100      15.886    
  15.743      15.692      15.743      15.887      16.100      16.352      16.612      16.854      17.072      17.273    
  17.477      17.713      18.009      18.376      18.799      19.242      19.659      19.993      20.189      20.209    
  20.052      19.753      19.384      19.031      18.779      18.687      18.779      19.031      19.384      19.753    
  20.052      20.209      20.189      19.993      19.659      19.242      18.719      18.515      18.376      18.289    
  18.223      18.147      18.030      17.857      17.628      17.369      17.118      16.919      16.809      16.809    
  16.919      17.118      17.369      17.628      17.857      18.030      18.147      18.223      18.289      18.376    
  18.515      18.719      18.973      19.242      19.483      19.649      19.696      19.604      19.386      19.084    
  18.764      18.498      18.348      18.348      18.498      18.764      19.084      19.386      19.604      19.695    
  19.649      19.483      19.242      18.973      18.719      18.973      19.242      19.483      19.649      19.695    
  19.604      19.386      19.084      18.764      18.498      18.348      18.348      18.498      18.764      19.084    
  19.386      19.604      19.696      19.649      19.483      19.242      18.973      18.719      18.515      18.376    
  18.289      18.223      18.147      18.030      17.857      17.628      17.369      17.118      16.919      16.809    
  16.809      16.919      17.118      17.369      17.628      17.857      18.030      18.147      18.223      18.289    
  18.376      18.515      18.973      19.420      19.840      20.174      20.365      20.378      20.208      19.895    
  19.510      19.143      18.881      18.787      18.881      19.143      19.510      19.895      20.208      20.378    
  20.365      20.174      19.840      19.420      18.973      18.546      18.176      17.877      17.638      17.431    
  17.227      17.006      16.759      16.495      16.237      16.019      15.872      15.821      15.872      16.019    
  16.237      16.495      16.759      17.006      17.227      17.431      17.638      17.877      18.175      18.546    
  19.242      19.840      20.353      20.710      20.856      20.768      20.473      20.041      19.575      19.185    
  18.964      18.964      19.185      19.575      20.041      20.473      20.768      20.856      20.710      20.353    
  19.840      19.242      18.626      18.040      17.521      17.084      16.717      16.395      16.093      15.797    
  15.504      15.225      14.984      14.804      14.707      14.707      14.804      14.984      15.225      15.504    
  15.797      16.093      16.395      16.717      17.084      17.521      18.040      18.626      19.483      20.174    