C                                       
   3.56249068728843     
     0.000000    0.500000    0.500000
     0.500000    0.000000    0.500000
     0.500000    0.500000    0.000000
   C 
     2
Direct
  0.875000  0.875000  0.875000
  0.125000  0.125000  0.125000
 
   48   48   48
 0.18687702981E+02 0.18719167384E+02 0.18798938874E+02 0.18894458987E+02 0.18967988242E+02
 0.18980663597E+02 0.18903563101E+02 0.18730217827E+02 0.18480583483E+02 0.18197794986E+02
 0.17937898943E+02 0.17755585348E+02 0.17690065114E+02 0.17755609702E+02 0.17937944728E+02
 0.18197776160E+02 0.18480563482E+02 0.18730251399E+02 0.18903580934E+02 0.18980605407E+02
 0.18968037732E+02 0.18894429713E+02 0.18798949027E+02 0.18719173807E+02 0.18687701608E+02
 0.18719173807E+02 0.18798949027E+02 0.18894429713E+02 0.18968037732E+02 0.18980605407E+02
 0.18903580934E+02 0.18730251399E+02 0.18480563482E+02 0.18197776160E+02 0.17937944728E+02
 0.17755609702E+02 0.17690065114E+02 0.17755585348E+02 0.17937898943E+02 0.18197794986E+02
 0.18480583483E+02 0.18730217827E+02 0.18903563101E+02 0.18980663597E+02 0.18967988242E+02
 0.18894458987E+02 0.18798938874E+02 0.18719167384E+02 0.18719167384E+02 0.18973076604E+02
 0.19241956867E+02 0.19483429290E+02 0.19648638491E+02 0.19695473477E+02 0.19604164740E+02
 0.19385941536E+02 0.19083847868E+02 0.18763776136E+02 0.18498120219E+02 0.18347899514E+02
 0.18347886677E+02 0.18498120228E+02 0.18763794413E+02 0.19083867930E+02 0.19385896413E+02
 0.19604156358E+02 0.19695515463E+02 0.19648606059E+02 0.19483452172E+02 0.19241953979E+02
 0.18973069384E+02 0.18719174788E+02 0.18514907598E+02 0.18375849659E+02 0.18288744429E+02
 0.18223178380E+02 0.18146764358E+02 0.18030290979E+02 0.17856559018E+02 0.17628427069E+02
 0.17369413415E+02 0.17118361763E+02 0.16918995201E+02 0.16808692194E+02 0.16808697011E+02
 0.16919060280E+02 0.17118402966E+02 0.17369415890E+02 0.17628389129E+02 0.17856603757E+02
 0.18030294123E+02 0.18146723104E+02 0.18223215859E+02 0.18288715324E+02 0.18375854907E+02
 0.18514914323E+02 0.18798938874E+02 0.19241956867E+02 0.19659150920E+02 0.19993329997E+02
 0.20188700380E+02 0.20209148584E+02 0.20051844904E+02 0.19753388444E+02 0.19383893657E+02
 0.19030905392E+02 0.18778599444E+02 0.18687215441E+02 0.18778591308E+02 0.19030875119E+02
 0.19383890362E+02 0.19753403898E+02 0.20051843143E+02 0.20209120173E+02 0.20188739761E+02
 0.19993290559E+02 0.19659172548E+02 0.19241948270E+02 0.18798950875E+02 0.18375847133E+02
 0.18008845750E+02 0.17713328807E+02 0.17477373800E+02 0.17272844484E+02 0.17071941722E+02
 0.16854243045E+02 0.16611540423E+02 0.16352414347E+02 0.16100122149E+02 0.15886514557E+02
 0.15743018554E+02 0.15692419988E+02 0.15742989750E+02 0.15886467626E+02 0.16100070583E+02
 0.16352427288E+02 0.16611592400E+02 0.16854199043E+02 0.17071933402E+02 0.17272882805E+02
 0.17477326912E+02 0.17713366558E+02 0.18008820099E+02 0.18375854907E+02 0.18894458987E+02
 0.19483429290E+02 0.19993329997E+02 0.20356151655E+02 0.20518229538E+02 0.20458005694E+02
 0.20198313052E+02 0.19805469192E+02 0.19376121038E+02 0.19014910793E+02 0.18809479897E+02
 0.18809451732E+02 0.19014910742E+02 0.19376112605E+02 0.19805456090E+02 0.20198308774E+02
 0.20457997041E+02 0.20518197517E+02 0.20356183644E+02 0.19993305691E+02 0.19483447882E+02
 0.18894439465E+02 0.18288731264E+02 0.17713343365E+02 0.17204860303E+02 0.16776893116E+02
 0.16418182594E+02 0.16103449646E+02 0.15808306391E+02 0.15519179704E+02 0.15234157389E+02
 0.14964459675E+02 0.14730716444E+02 0.14557122906E+02 0.14464367403E+02 0.14464389644E+02
 0.14557139521E+02 0.14730776651E+02 0.14964488901E+02 0.15234127130E+02 0.15519116354E+02
 0.15808394125E+02 0.16103409437E+02 0.16418176239E+02 0.16776914482E+02 0.17204826895E+02
 0.17713366558E+02 0.18288715324E+02 0.18967988242E+02 0.19648638491E+02 0.20188700380E+02
 0.20518229538E+02 0.20594369540E+02 0.20419399658E+02 0.20046655991E+02 0.19572333122E+02
 0.19114599379E+02 0.18785992591E+02 0.18666773606E+02 0.18785999201E+02 0.19114599857E+02
 0.19572330701E+02 0.20046685829E+02 0.20419420312E+02 0.20594377968E+02 0.20518215707E+02
 0.20188721854E+02 0.19648611030E+02 0.18968013820E+02 0.18223200588E+02 0.17477346280E+02
 0.16776900195E+02 0.16156897677E+02 0.15627318782E+02 0.15176739872E+02 0.14783158984E+02
 0.14425727515E+02 0.14094464219E+02 0.13791776037E+02 0.13529036620E+02 0.13323268668E+02
 0.13191413966E+02 0.13146003839E+02 0.13191398420E+02 0.13323234375E+02 0.13528990534E+02
 0.13791755938E+02 0.14094545502E+02 0.14425725925E+02 0.14783089771E+02 0.15176798289E+02
 0.15627292463E+02 0.16156897406E+02 0.16776914482E+02 0.17477326912E+02 0.18223215859E+02
 0.18980663597E+02 0.19695473477E+02 0.20209148584E+02 0.20458005694E+02 0.20419399658E+02
 0.20124743921E+02 0.19658434934E+02 0.19141364690E+02 0.18703719195E+02 0.18454166040E+02
 0.18454189477E+02 0.18703767916E+02 0.19141368174E+02 0.19658419229E+02 0.20124719670E+02
 0.20419424556E+02 0.20457984491E+02 0.20209154186E+02 0.19695480241E+02 0.18980647884E+02
 0.18146734123E+02 0.17272868529E+02 0.16418187002E+02 0.15627299438E+02 0.14930785583E+02
 0.14333565188E+02 0.13823495135E+02 0.13381465792E+02 0.12991209730E+02 0.12645016947E+02
 0.12346121567E+02 0.12105005010E+02 0.11934633348E+02 0.11846238562E+02 0.11846235248E+02
 0.11934663533E+02 0.12105042006E+02 0.12346163740E+02 0.12644978307E+02 0.12991143876E+02
 0.13381517893E+02 0.13823511367E+02 0.14333530788E+02 0.14930808996E+02 0.15627292463E+02
 0.16418176239E+02 0.17272882805E+02 0.18146723104E+02 0.18903563101E+02 0.19604164740E+02
 0.20051844904E+02 0.20198313052E+02 0.20046655991E+02 0.19658434934E+02 0.19144168954E+02
 0.18640015737E+02 0.18275366178E+02 0.18142689830E+02 0.18275335858E+02 0.18640028425E+02
 0.19144188484E+02 0.19658418625E+02 0.20046650249E+02 0.20198330493E+02 0.20051824315E+02
 0.19604181444E+02 0.18903572289E+02 0.18030283355E+02 0.17071949292E+02 0.16103397090E+02
 0.15176794485E+02 0.14333542891E+02 0.13596463123E+02 0.12965007668E+02 0.12426152012E+02
 0.11963389872E+02 0.11564486611E+02 0.11224705911E+02 0.10946880511E+02 0.10738793055E+02
 0.10609439841E+02 0.10565492201E+02 0.10609428768E+02 0.10738755545E+02 0.10946836262E+02
 0.11224707978E+02 0.11564543513E+02 0.11963403395E+02 0.12426108548E+02 0.12965012836E+02
 0.13596479364E+02 0.14333530788E+02 0.15176798289E+02 0.16103409437E+02 0.17071933402E+02
 0.18030294123E+02 0.18730217827E+02 0.19385941536E+02 0.19753388444E+02 0.19805469192E+02
 0.19572333122E+02 0.19141364690E+02 0.18640015737E+02 0.18206476233E+02 0.17956737341E+02
 0.17956746319E+02 0.18206484323E+02 0.18639993479E+02 0.19141370913E+02 0.19572307089E+02
 0.19805457159E+02 0.19753398372E+02 0.19385904840E+02 0.18730227873E+02 0.17856591800E+02
 0.16854198859E+02 0.15808394520E+02 0.14783099667E+02 0.13823496159E+02 0.12965023752E+02
 0.12220458526E+02 0.11584495204E+02 0.11043471041E+02 0.10583562118E+02 0.10195718335E+02
 0.98773526856E+01 0.96311639661E+01 0.94624900629E+01 0.93765731634E+01 0.93765816872E+01
 0.94625102728E+01 0.96312094016E+01 0.98773714445E+01 0.10195684410E+02 0.10583531590E+02
 0.11043473466E+02 0.11584523347E+02 0.12220451625E+02 0.12965012836E+02 0.13823511367E+02
 0.14783089771E+02 0.15808394125E+02 0.16854199043E+02 0.17856603757E+02 0.18480583483E+02
 0.19083847868E+02 0.19383893657E+02 0.19376121038E+02 0.19114599379E+02 0.18703719195E+02
 0.18275366178E+02 0.17956737341E+02 0.17839494078E+02 0.17956722951E+02 0.18275341054E+02
 0.18703730343E+02 0.19114598949E+02 0.19376099273E+02 0.19383913726E+02 0.19083844552E+02
 0.18480580893E+02 0.17628404207E+02 0.16611590107E+02 0.15519118958E+02 0.14425708128E+02
 0.13381533966E+02 0.12426097603E+02 0.11584520067E+02 0.10859930073E+02 0.10243352304E+02
 0.97213600736E+01 0.92827903719E+01 0.89212283766E+01 0.86354928373E+01 0.84276385038E+01
 0.83010795774E+01 0.82585308851E+01 0.83010623486E+01 0.84276106570E+01 0.86354589942E+01
 0.89212393389E+01 0.92828159217E+01 0.97213796674E+01 0.10243344630E+02 0.10859914193E+02
 0.11584523347E+02 0.12426108548E+02 0.13381517893E+02 0.14425725925E+02 0.15519116354E+02
 0.16611592400E+02 0.17628389129E+02 0.18197794986E+02 0.18763776136E+02 0.19030905392E+02
 0.19014910793E+02 0.18785992591E+02 0.18454166040E+02 0.18142689830E+02 0.17956746319E+02
 0.17956722951E+02 0.18142650428E+02 0.18454181310E+02 0.18785992969E+02 0.19014907551E+02
 0.19030898464E+02 0.18763781909E+02 0.18197776224E+02 0.17369408399E+02 0.16352421799E+02
 0.15234122198E+02 0.14094565627E+02 0.12991129271E+02 0.11963415609E+02 0.11043472886E+02
 0.10243335653E+02 0.95590004739E+01 0.89790567769E+01 0.84914691411E+01 0.80875042528E+01
 0.77629517046E+01 0.75172526075E+01 0.73518612020E+01 0.72686063565E+01 0.72686082995E+01
 0.73518907263E+01 0.75172687580E+01 0.77629697483E+01 0.80874868597E+01 0.84914530285E+01
 0.89790414875E+01 0.95590124815E+01 0.10243344630E+02 0.11043473466E+02 0.11963403395E+02
 0.12991143876E+02 0.14094545502E+02 0.15234127130E+02 0.16352427288E+02 0.17369415890E+02
 0.17937898943E+02 0.18498120219E+02 0.18778599444E+02 0.18809479897E+02 0.18666773606E+02
 0.18454189477E+02 0.18275335858E+02 0.18206484323E+02 0.18275341054E+02 0.18454181310E+02
 0.18666758372E+02 0.18809496026E+02 0.18778577988E+02 0.18498130350E+02 0.17937920800E+02
 0.17118392467E+02 0.16100096238E+02 0.14964483444E+02 0.13791758284E+02 0.12644977836E+02
 0.11564546255E+02 0.10583521836E+02 0.97213949006E+01 0.89790446638E+01 0.83477262386E+01
 0.78154523389E+01 0.73721251740E+01 0.70113043295E+01 0.67302693445E+01 0.65286837939E+01
 0.64072340981E+01 0.63666463234E+01 0.64072198323E+01 0.65286644502E+01 0.67302614259E+01
 0.70112960116E+01 0.73721380929E+01 0.78154713657E+01 0.83477302643E+01 0.89790414875E+01
 0.97213796674E+01 0.10583531590E+02 0.11564543513E+02 0.12644978307E+02 0.13791755938E+02
 0.14964488901E+02 0.16100070583E+02 0.17118402966E+02 0.17755585348E+02 0.18347899514E+02
 0.18687215441E+02 0.18809451732E+02 0.18785999201E+02 0.18703767916E+02 0.18640028425E+02
 0.18639993479E+02 0.18703730343E+02 0.18785992969E+02 0.18809496026E+02 0.18687209034E+02
 0.18347890684E+02 0.17755593690E+02 0.16919030059E+02 0.15886467115E+02 0.14730761900E+02
 0.13529003836E+02 0.12346152776E+02 0.11224713362E+02 0.10195688824E+02 0.92828077451E+01
 0.84914475520E+01 0.78154750122E+01 0.72435134918E+01 0.67647106032E+01 0.63709600555E+01
 0.60577866398E+01 0.58232245950E+01 0.56668175972E+01 0.55885725773E+01 0.55885788752E+01
 0.56668287538E+01 0.58232343506E+01 0.60577923863E+01 0.63709664874E+01 0.67646965407E+01
 0.72434996834E+01 0.78154713657E+01 0.84914530285E+01 0.92828159217E+01 0.10195684410E+02
 0.11224707978E+02 0.12346163740E+02 0.13528990534E+02 0.14730776651E+02 0.15886467626E+02
 0.16919060280E+02 0.17690065114E+02 0.18347886677E+02 0.18778591308E+02 0.19014910742E+02
 0.19114599857E+02 0.19141368174E+02 0.19144188484E+02 0.19141370913E+02 0.19114598949E+02
 0.19014907551E+02 0.18778577988E+02 0.18347890684E+02 0.17690082007E+02 0.16808700451E+02
 0.15743002317E+02 0.14557139421E+02 0.13323227653E+02 0.12105049647E+02 0.10946837742E+02
 0.98773675572E+01 0.89212470067E+01 0.80874925485E+01 0.73721362599E+01 0.67646859304E+01
 0.62538626015E+01 0.58303166770E+01 0.54881219783E+01 0.52238339870E+01 0.50359252241E+01
 0.49234453088E+01 0.48860436242E+01 0.49234410026E+01 0.50359217065E+01 0.52238248173E+01
 0.54881194805E+01 0.58303115774E+01 0.62538773658E+01 0.67646965407E+01 0.73721380929E+01
 0.80874868597E+01 0.89212393389E+01 0.98773714445E+01 0.10946836262E+02 0.12105042006E+02
 0.13323234375E+02 0.14557139521E+02 0.15742989750E+02 0.16808697011E+02 0.17755609702E+02
 0.18498120228E+02 0.19030875119E+02 0.19376112605E+02 0.19572330701E+02 0.19658419229E+02
 0.19658418625E+02 0.19572307089E+02 0.19376099273E+02 0.19030898464E+02 0.18498130350E+02
 0.17755593690E+02 0.16808700451E+02 0.15692400963E+02 0.14464381656E+02 0.13191409360E+02
 0.11934655663E+02 0.10738755746E+02 0.96312074128E+01 0.86354564070E+01 0.77629641548E+01
 0.70112986542E+01 0.63709736340E+01 0.58303279123E+01 0.53792315828E+01 0.50103459591E+01
 0.47190982326E+01 0.45027288296E+01 0.43594917645E+01 0.42881914644E+01 0.42881885359E+01
 0.43594923289E+01 0.45027312102E+01 0.47191068423E+01 0.50103457103E+01 0.53792369340E+01
 0.58303115774E+01 0.63709664874E+01 0.70112960116E+01 0.77629697483E+01 0.86354589942E+01
 0.96312094016E+01 0.10738755545E+02 0.11934663533E+02 0.13191398420E+02 0.14464389644E+02
 0.15692419988E+02 0.16808692194E+02 0.17937944728E+02 0.18763794413E+02 0.19383890362E+02
 0.19805456090E+02 0.20046685829E+02 0.20124719670E+02 0.20046650249E+02 0.19805457159E+02
 0.19383913726E+02 0.18763781909E+02 0.17937920800E+02 0.16919030059E+02 0.15743002317E+02
 0.14464381656E+02 0.13145993064E+02 0.11846236635E+02 0.10609433373E+02 0.94625075558E+01
 0.84276220457E+01 0.75172683038E+01 0.67302634339E+01 0.60577844516E+01 0.54881064205E+01
 0.50103476041E+01 0.46161110077E+01 0.42996614651E+01 0.40572261215E+01 0.38861264427E+01
 0.37843764667E+01 0.37506191525E+01 0.37843813548E+01 0.38861268746E+01 0.40572230739E+01
 0.42996563818E+01 0.46161100668E+01 0.50103457103E+01 0.54881194805E+01 0.60577923863E+01
 0.67302614259E+01 0.75172687580E+01 0.84276106570E+01 0.94625102728E+01 0.10609428768E+02
 0.11846235248E+02 0.13146003839E+02 0.14464367403E+02 0.15743018554E+02 0.16918995201E+02
 0.18197776160E+02 0.19083867930E+02 0.19753403898E+02 0.20198308774E+02 0.20419420312E+02
 0.20419424556E+02 0.20198330493E+02 0.19753398372E+02 0.19083844552E+02 0.18197776224E+02
 0.17118392467E+02 0.15886467115E+02 0.14557139421E+02 0.13191409360E+02 0.11846236635E+02
 0.10565491512E+02 0.93765758002E+01 0.83010562228E+01 0.73518824419E+01 0.65286680798E+01
 0.58232369409E+01 0.52238414171E+01 0.47191027400E+01 0.42996589175E+01 0.39587897746E+01
 0.36917105907E+01 0.34949031618E+01 0.33655257462E+01 0.33014399771E+01 0.33014383587E+01
 0.33655208590E+01 0.34949034961E+01 0.36917110166E+01 0.39587957987E+01 0.42996563818E+01
 0.47191068423E+01 0.52238248173E+01 0.58232343506E+01 0.65286644502E+01 0.73518907263E+01
 0.83010623486E+01 0.93765816872E+01 0.10565492201E+02 0.11846238562E+02 0.13191413966E+02
 0.14557122906E+02 0.15886514557E+02 0.17118361763E+02 0.18480563482E+02 0.19385896413E+02
 0.20051843143E+02 0.20457997041E+02 0.20594377968E+02 0.20457984491E+02 0.20051824315E+02
 0.19385904840E+02 0.18480580893E+02 0.17369408399E+02 0.16100096238E+02 0.14730761900E+02
 0.13323227653E+02 0.11934655663E+02 0.10609433373E+02 0.93765758002E+01 0.82585406923E+01
 0.72686112326E+01 0.64072244508E+01 0.56668225066E+01 0.50359085121E+01 0.45027316672E+01
 0.40572228625E+01 0.36917137185E+01 0.34005218194E+01 0.31792715544E+01 0.30243306745E+01
 0.29327339175E+01 0.29024433469E+01 0.29327352698E+01 0.30243338572E+01 0.31792731822E+01
 0.34005196230E+01 0.36917110166E+01 0.40572230739E+01 0.45027312102E+01 0.50359217065E+01
 0.56668287538E+01 0.64072198323E+01 0.72686082995E+01 0.82585308851E+01 0.93765731634E+01
 0.10609439841E+02 0.11934633348E+02 0.13323268668E+02 0.14730716444E+02 0.16100122149E+02
 0.17369413415E+02 0.18730251399E+02 0.19604156358E+02 0.20209120173E+02 0.20518197517E+02
 0.20518215707E+02 0.20209154186E+02 0.19604181444E+02 0.18730227873E+02 0.17628404207E+02
 0.16352421799E+02 0.14964483444E+02 0.13529003836E+02 0.12105049647E+02 0.10738755746E+02
 0.94625075558E+01 0.83010562228E+01 0.72686112326E+01 0.63666344774E+01 0.55885845653E+01
 0.49234499672E+01 0.43594975562E+01 0.38861225135E+01 0.34949069708E+01 0.31792663773E+01
 0.29340342136E+01 0.27547669997E+01 0.26377304542E+01 0.25800017906E+01 0.25800089951E+01
 0.26377230613E+01 0.27547695108E+01 0.29340264474E+01 0.31792731822E+01 0.34949034961E+01
 0.38861268746E+01 0.43594923289E+01 0.49234410026E+01 0.55885788752E+01 0.63666463234E+01
 0.72686063565E+01 0.83010795774E+01 0.94624900629E+01 0.10738793055E+02 0.12105005010E+02
 0.13529036620E+02 0.14964459675E+02 0.16352414347E+02 0.17628427069E+02 0.18903580934E+02
 0.19695515463E+02 0.20188739761E+02 0.20356183644E+02 0.20188721854E+02 0.19695480241E+02
 0.18903572289E+02 0.17856591800E+02 0.16611590107E+02 0.15234122198E+02 0.13791758284E+02
 0.12346152776E+02 0.10946837742E+02 0.96312074128E+01 0.84276220457E+01 0.73518824419E+01
 0.64072244508E+01 0.55885845653E+01 0.48860246421E+01 0.42881935339E+01 0.37843747080E+01
 0.33655261824E+01 0.30243319383E+01 0.27547696109E+01 0.25516600103E+01 0.24104455650E+01
 0.23274075099E+01 0.23000197871E+01 0.23274070561E+01 0.24104455551E+01 0.25516645834E+01
 0.27547695108E+01 0.30243338572E+01 0.33655208590E+01 0.37843813548E+01 0.42881885359E+01
 0.48860436242E+01 0.55885725773E+01 0.64072340981E+01 0.73518612020E+01 0.84276385038E+01
 0.96311639661E+01 0.10946880511E+02 0.12346121567E+02 0.13791776037E+02 0.15234157389E+02
 0.16611540423E+02 0.17856559018E+02 0.18980605407E+02 0.19648606059E+02 0.19993290559E+02
 0.19993305691E+02 0.19648611030E+02 0.18980647884E+02 0.18030283355E+02 0.16854198859E+02
 0.15519118958E+02 0.14094565627E+02 0.12644977836E+02 0.11224713362E+02 0.98773675572E+01
 0.86354564070E+01 0.75172683038E+01 0.65286680798E+01 0.56668225066E+01 0.49234499672E+01
 0.42881935339E+01 0.37506183129E+01 0.33014409483E+01 0.29327320801E+01 0.26377278352E+01
 0.24104464260E+01 0.22455677381E+01 0.21385326039E+01 0.20859395416E+01 0.20859373053E+01
 0.21385355701E+01 0.22455648787E+01 0.24104455551E+01 0.26377230613E+01 0.29327352698E+01
 0.33014383587E+01 0.37506191525E+01 0.42881914644E+01 0.49234453088E+01 0.56668175972E+01
 0.65286837939E+01 0.75172526075E+01 0.86354928373E+01 0.98773526856E+01 0.11224705911E+02
 0.12645016947E+02 0.14094464219E+02 0.15519179704E+02 0.16854243045E+02 0.18030290979E+02
 0.18968037732E+02 0.19483452172E+02 0.19659172548E+02 0.19483447882E+02 0.18968013820E+02
 0.18146734123E+02 0.17071949292E+02 0.15808394520E+02 0.14425708128E+02 0.12991129271E+02
 0.11564546255E+02 0.10195688824E+02 0.89212470067E+01 0.77629641548E+01 0.67302634339E+01
 0.58232369409E+01 0.50359085121E+01 0.43594975562E+01 0.37843747080E+01 0.33014409483E+01
 0.29024422023E+01 0.25800071631E+01 0.23274036786E+01 0.21385350818E+01 0.20080217909E+01
 0.19315909888E+01 0.19064348176E+01 0.19315911760E+01 0.20080210883E+01 0.21385355701E+01
 0.23274070561E+01 0.25800089951E+01 0.29024433469E+01 0.33014399771E+01 0.37843764667E+01
 0.43594917645E+01 0.50359252241E+01 0.58232245950E+01 0.67302693445E+01 0.77629517046E+01
 0.89212283766E+01 0.10195718335E+02 0.11564486611E+02 0.12991209730E+02 0.14425727515E+02
 0.15808306391E+02 0.17071941722E+02 0.18146764358E+02 0.18894429713E+02 0.19241953979E+02
 0.19241948270E+02 0.18894439465E+02 0.18223200588E+02 0.17272868529E+02 0.16103397090E+02
 0.14783099667E+02 0.13381533966E+02 0.11963415609E+02 0.10583521836E+02 0.92828077451E+01
 0.80874925485E+01 0.70112986542E+01 0.60577844516E+01 0.52238414171E+01 0.45027316672E+01
 0.38861225135E+01 0.33655261824E+01 0.29327320801E+01 0.25800071631E+01 0.23000203935E+01
 0.20859396088E+01 0.19315884033E+01 0.18318313626E+01 0.17829324782E+01 0.17829343511E+01
 0.18318294861E+01 0.19315911760E+01 0.20859373053E+01 0.23000197871E+01 0.25800017906E+01
 0.29327339175E+01 0.33655257462E+01 0.38861264427E+01 0.45027288296E+01 0.52238339870E+01
 0.60577866398E+01 0.70113043295E+01 0.80875042528E+01 0.92827903719E+01 0.10583562118E+02
 0.11963389872E+02 0.13381465792E+02 0.14783158984E+02 0.16103449646E+02 0.17272844484E+02
 0.18223178380E+02 0.18798949027E+02 0.18973069384E+02 0.18798950875E+02 0.18288731264E+02
 0.17477346280E+02 0.16418187002E+02 0.15176794485E+02 0.13823496159E+02 0.12426097603E+02
 0.11043472886E+02 0.97213949006E+01 0.84914475520E+01 0.73721362599E+01 0.63709736340E+01
 0.54881064205E+01 0.47191027400E+01 0.40572228625E+01 0.34949069708E+01 0.30243319383E+01
 0.26377278352E+01 0.23274036786E+01 0.20859396088E+01 0.19064352786E+01 0.17829341789E+01
 0.17107971225E+01 0.16870897885E+01 0.17107971328E+01 0.17829343511E+01 0.19064348176E+01
 0.20859395416E+01 0.23274075099E+01 0.26377304542E+01 0.30243306745E+01 0.34949031618E+01
 0.40572261215E+01 0.47190982326E+01 0.54881219783E+01 0.63709600555E+01 0.73721251740E+01
 0.84914691411E+01 0.97213600736E+01 0.11043471041E+02 0.12426152012E+02 0.13823495135E+02
 0.15176739872E+02 0.16418182594E+02 0.17477373800E+02 0.18288744429E+02 0.18719173807E+02
 0.18719174788E+02 0.18375847133E+02 0.17713343365E+02 0.16776900195E+02 0.15627299438E+02
 0.14333542891E+02 0.12965023752E+02 0.11584520067E+02 0.10243335653E+02 0.89790446638E+01
 0.78154750122E+01 0.67646859304E+01 0.58303279123E+01 0.50103476041E+01 0.42996589175E+01
 0.36917137185E+01 0.31792663773E+01 0.27547696109E+01 0.24104464260E+01 0.21385350818E+01
 0.19315884033E+01 0.17829341789E+01 0.16870882376E+01 0.16401739947E+01 0.16401726120E+01
 0.16870897885E+01 0.17829324782E+01 0.19315909888E+01 0.21385326039E+01 0.24104455650E+01
 0.27547669997E+01 0.31792715544E+01 0.36917105907E+01 0.42996614651E+01 0.50103459591E+01
 0.58303166770E+01 0.67647106032E+01 0.78154523389E+01 0.89790567769E+01 0.10243352304E+02
 0.11584495204E+02 0.12965007668E+02 0.14333565188E+02 0.15627318782E+02 0.16776893116E+02
 0.17713328807E+02 0.18375849659E+02 0.18687701608E+02 0.18514907598E+02 0.18008845750E+02
 0.17204860303E+02 0.16156897677E+02 0.14930785583E+02 0.13596463123E+02 0.12220458526E+02
 0.10859930073E+02 0.95590004739E+01 0.83477262386E+01 0.72435134918E+01 0.62538626015E+01
 0.53792315828E+01 0.46161110077E+01 0.39587897746E+01 0.34005218194E+01 0.29340342136E+01
 0.25516600103E+01 0.22455677381E+01 0.20080217909E+01 0.18318313626E+01 0.17107971225E+01
 0.16401739947E+01 0.16169703008E+01 0.16401739947E+01 0.17107971225E+01 0.18318313626E+01
 0.20080217909E+01 0.22455677381E+01 0.25516600103E+01 0.29340342136E+01 0.34005218194E+01
 0.39587897746E+01 0.46161110077E+01 0.53792315828E+01 0.62538626015E+01 0.72435134918E+01
 0.83477262386E+01 0.95590004739E+01 0.10859930073E+02 0.12220458526E+02 0.13596463123E+02
 0.14930785583E+02 0.16156897677E+02 0.17204860303E+02 0.18008845750E+02 0.18514907598E+02
 0.18719173807E+02 0.18375849659E+02 0.17713328807E+02 0.16776893116E+02 0.15627318782E+02
 0.14333565188E+02 0.12965007668E+02 0.11584495204E+02 0.10243352304E+02 0.89790567769E+01
 0.78154523389E+01 0.67647106032E+01 0.58303166770E+01 0.50103459591E+01 0.42996614651E+01
 0.36917105907E+01 0.31792715544E+01 0.27547669997E+01 0.24104455650E+01 0.21385326039E+01
 0.19315909888E+01 0.17829324782E+01 0.16870897885E+01 0.16401726120E+01 0.16401739947E+01
 0.16870882376E+01 0.17829341789E+01 0.19315884033E+01 0.21385350818E+01 0.24104464260E+01
 0.27547696109E+01 0.31792663773E+01 0.36917137185E+01 0.42996589175E+01 0.50103476041E+01
 0.58303279123E+01 0.67646859304E+01 0.78154750122E+01 0.89790446638E+01 0.10243335653E+02
 0.11584520067E+02 0.12965023752E+02 0.14333542891E+02 0.15627299438E+02 0.16776900195E+02
 0.17713343365E+02 0.18375847133E+02 0.18719174788E+02 0.18798949027E+02 0.18288744429E+02
 0.17477373800E+02 0.16418182594E+02 0.15176739872E+02 0.13823495135E+02 0.12426152012E+02
 0.11043471041E+02 0.97213600736E+01 0.84914691411E+01 0.73721251740E+01 0.63709600555E+01
 0.54881219783E+01 0.47190982326E+01 0.40572261215E+01 0.34949031618E+01 0.30243306745E+01
 0.26377304542E+01 0.23274075099E+01 0.20859395416E+01 0.19064348176E+01 0.17829343511E+01
 0.17107971328E+01 0.16870897885E+01 0.17107971225E+01 0.17829341789E+01 0.19064352786E+01
 0.20859396088E+01 0.23274036786E+01 0.26377278352E+01 0.30243319383E+01 0.34949069708E+01
 0.40572228625E+01 0.47191027400E+01 0.54881064205E+01 0.63709736340E+01 0.73721362599E+01
 0.84914475520E+01 0.97213949006E+01 0.11043472886E+02 0.12426097603E+02 0.13823496159E+02
 0.15176794485E+02 0.16418187002E+02 0.17477346280E+02 0.18288731264E+02 0.18798950875E+02
 0.18973069384E+02 0.18894429713E+02 0.18223178380E+02 0.17272844484E+02 0.16103449646E+02
 0.14783158984E+02 0.13381465792E+02 0.11963389872E+02 0.10583562118E+02 0.92827903719E+01
 0.80875042528E+01 0.70113043295E+01 0.60577866398E+01 0.52238339870E+01 0.45027288296E+01
 0.38861264427E+01 0.33655257462E+01 0.29327339175E+01 0.25800017906E+01 0.23000197871E+01
 0.20859373053E+01 0.19315911760E+01 0.18318294861E+01 0.17829343511E+01 0.17829324782E+01
 0.18318313626E+01 0.19315884033E+01 0.20859396088E+01 0.23000203935E+01 0.25800071631E+01
 0.29327320801E+01 0.33655261824E+01 0.38861225135E+01 0.45027316672E+01 0.52238414171E+01
 0.60577844516E+01 0.70112986542E+01 0.80874925485E+01 0.92828077451E+01 0.10583521836E+02
 0.11963415609E+02 0.13381533966E+02 0.14783099667E+02 0.16103397090E+02 0.17272868529E+02
 0.18223200588E+02 0.18894439465E+02 0.19241948270E+02 0.19241953979E+02 0.18968037732E+02
 0.18146764358E+02 0.17071941722E+02 0.15808306391E+02 0.14425727515E+02 0.12991209730E+02
 0.11564486611E+02 0.10195718335E+02 0.89212283766E+01 0.77629517046E+01 0.67302693445E+01
 0.58232245950E+01 0.50359252241E+01 0.43594917645E+01 0.37843764667E+01 0.33014399771E+01
 0.29024433469E+01 0.25800089951E+01 0.23274070561E+01 0.21385355701E+01 0.20080210883E+01
 0.19315911760E+01 0.19064348176E+01 0.19315909888E+01 0.20080217909E+01 0.21385350818E+01
 0.23274036786E+01 0.25800071631E+01 0.29024422023E+01 0.33014409483E+01 0.37843747080E+01
 0.43594975562E+01 0.50359085121E+01 0.58232369409E+01 0.67302634339E+01 0.77629641548E+01
 0.89212470067E+01 0.10195688824E+02 0.11564546255E+02 0.12991129271E+02 0.14425708128E+02
 0.15808394520E+02 0.17071949292E+02 0.18146734123E+02 0.18968013820E+02 0.19483447882E+02
 0.19659172548E+02 0.19483452172E+02 0.18980605407E+02 0.18030290979E+02 0.16854243045E+02
 0.15519179704E+02 0.14094464219E+02 0.12645016947E+02 0.11224705911E+02 0.98773526856E+01
 0.86354928373E+01 0.75172526075E+01 0.65286837939E+01 0.56668175972E+01 0.49234453088E+01
 0.42881914644E+01 0.37506191525E+01 0.33014383587E+01 0.29327352698E+01 0.26377230613E+01
 0.24104455551E+01 0.22455648787E+01 0.21385355701E+01 0.20859373053E+01 0.20859395416E+01
 0.21385326039E+01 0.22455677381E+01 0.24104464260E+01 0.26377278352E+01 0.29327320801E+01
 0.33014409483E+01 0.37506183129E+01 0.42881935339E+01 0.49234499672E+01 0.56668225066E+01
 0.65286680798E+01 0.75172683038E+01 0.86354564070E+01 0.98773675572E+01 0.11224713362E+02
 0.12644977836E+02 0.14094565627E+02 0.15519118958E+02 0.16854198859E+02 0.18030283355E+02
 0.18980647884E+02 0.19648611030E+02 0.19993305691E+02 0.19993290559E+02 0.19648606059E+02
 0.18903580934E+02 0.17856559018E+02 0.16611540423E+02 0.15234157389E+02 0.13791776037E+02
 0.12346121567E+02 0.10946880511E+02 0.96311639661E+01 0.84276385038E+01 0.73518612020E+01
 0.64072340981E+01 0.55885725773E+01 0.48860436242E+01 0.42881885359E+01 0.37843813548E+01
 0.33655208590E+01 0.30243338572E+01 0.27547695108E+01 0.25516645834E+01 0.24104455551E+01
 0.23274070561E+01 0.23000197871E+01 0.23274075099E+01 0.24104455650E+01 0.25516600103E+01
 0.27547696109E+01 0.30243319383E+01 0.33655261824E+01 0.37843747080E+01 0.42881935339E+01
 0.48860246421E+01 0.55885845653E+01 0.64072244508E+01 0.73518824419E+01 0.84276220457E+01
 0.96312074128E+01 0.10946837742E+02 0.12346152776E+02 0.13791758284E+02 0.15234122198E+02
 0.16611590107E+02 0.17856591800E+02 0.18903572289E+02 0.19695480241E+02 0.20188721854E+02
 0.20356183644E+02 0.20188739761E+02 0.19695515463E+02 0.18730251399E+02 0.17628427069E+02
 0.16352414347E+02 0.14964459675E+02 0.13529036620E+02 0.12105005010E+02 0.10738793055E+02
 0.94624900629E+01 0.83010795774E+01 0.72686063565E+01 0.63666463234E+01 0.55885788752E+01
 0.49234410026E+01 0.43594923289E+01 0.38861268746E+01 0.34949034961E+01 0.31792731822E+01
 0.29340264474E+01 0.27547695108E+01 0.26377230613E+01 0.25800089951E+01 0.25800017906E+01
 0.26377304542E+01 0.27547669997E+01 0.29340342136E+01 0.31792663773E+01 0.34949069708E+01
 0.38861225135E+01 0.43594975562E+01 0.49234499672E+01 0.55885845653E+01 0.63666344774E+01
 0.72686112326E+01 0.83010562228E+01 0.94625075558E+01 0.10738755746E+02 0.12105049647E+02
 0.13529003836E+02 0.14964483444E+02 0.16352421799E+02 0.17628404207E+02 0.18730227873E+02
 0.19604181444E+02 0.20209154186E+02 0.20518215707E+02 0.20518197517E+02 0.20209120173E+02
 0.19604156358E+02 0.18480563482E+02 0.17369413415E+02 0.16100122149E+02 0.14730716444E+02
 0.13323268668E+02 0.11934633348E+02 0.10609439841E+02 0.93765731634E+01 0.82585308851E+01
 0.72686082995E+01 0.64072198323E+01 0.56668287538E+01 0.50359217065E+01 0.45027312102E+01
 0.40572230739E+01 0.36917110166E+01 0.34005196230E+01 0.31792731822E+01 0.30243338572E+01
 0.29327352698E+01 0.29024433469E+01 0.29327339175E+01 0.30243306745E+01 0.31792715544E+01
 0.34005218194E+01 0.36917137185E+01 0.40572228625E+01 0.45027316672E+01 0.50359085121E+01
 0.56668225066E+01 0.64072244508E+01 0.72686112326E+01 0.82585406923E+01 0.93765758002E+01
 0.10609433373E+02 0.11934655663E+02 0.13323227653E+02 0.14730761900E+02 0.16100096238E+02
 0.17369408399E+02 0.18480580893E+02 0.19385904840E+02 0.20051824315E+02 0.20457984491E+02
 0.20594377968E+02 0.20457997041E+02 0.20051843143E+02 0.19385896413E+02 0.18197776160E+02
 0.17118361763E+02 0.15886514557E+02 0.14557122906E+02 0.13191413966E+02 0.11846238562E+02
 0.10565492201E+02 0.93765816872E+01 0.83010623486E+01 0.73518907263E+01 0.65286644502E+01
 0.58232343506E+01 0.52238248173E+01 0.47191068423E+01 0.42996563818E+01 0.39587957987E+01
 0.36917110166E+01 0.34949034961E+01 0.33655208590E+01 0.33014383587E+01 0.33014399771E+01
 0.33655257462E+01 0.34949031618E+01 0.36917105907E+01 0.39587897746E+01 0.42996589175E+01
 0.47191027400E+01 0.52238414171E+01 0.58232369409E+01 0.65286680798E+01 0.73518824419E+01
 0.83010562228E+01 0.93765758002E+01 0.10565491512E+02 0.11846236635E+02 0.13191409360E+02
 0.14557139421E+02 0.15886467115E+02 0.17118392467E+02 0.18197776224E+02 0.19083844552E+02
 0.19753398372E+02 0.20198330493E+02 0.20419424556E+02 0.20419420312E+02 0.20198308774E+02