    2    2    1    1
  0.5651598E+01  0.2519061E-09  0.2519061E-09  0.2519061E-09  0.5000000E-15
  1.000000000000000E-004
  CAR 
 C                                       
      8   1540      8
 
  0.0000000E+00  0.0000000E+00  0.0000000E+00  0.1685801E-04
    1      -12.981269   1.000000
    2        9.760105   1.000000
    3        9.760105   0.999997
    4        9.760105   0.999996
    5       15.606215   0.000000
    6       15.606215   0.000000
    7       15.606215   0.000000
    8       23.663987   0.000000
 
  0.2564103E-01  0.0000000E+00  0.0000000E+00  0.1348640E-03
    1      -12.962201   1.000000
    2        9.615334   1.000000
    3        9.724089   1.000000
    4        9.724089   1.000000
    5       15.653049   0.000000
    6       15.653049   0.000000
    7       15.698278   0.000000
    8       23.682962   0.000000
 
  0.5128205E-01  0.0000000E+00  0.0000000E+00  0.1348640E-03
    1      -12.905001   1.000000
    2        9.211248   1.000000
    3        9.620358   1.000000
    4        9.620359   1.000000
    5       15.788307   0.000000
    6       15.788307   0.000000
    7       15.945656   0.000000
    8       23.740013   0.000000
 
  0.7692308E-01  0.0000000E+00  0.0000000E+00  0.1348640E-03
    1      -12.809735   1.000000
    2        8.612234   1.000000
    3        9.460582   1.000000
    4        9.460582   1.000000
    5       15.998272   0.000000
    6       15.998273   0.000000
    7       16.285819   0.000000
    8       23.835141   0.000000
 
  0.1025641E+00  0.0000000E+00  0.0000000E+00  0.1348640E-03
    1      -12.676534   1.000000
    2        7.880732   1.000000
    3        9.259234   1.000000
    4        9.259235   1.000000
    5       16.264137   0.000000
    6       16.264137   0.000000
    7       16.660168   0.000000
    8       23.967426   0.000000
 
  0.1282051E+00  0.0000000E+00  0.0000000E+00  0.1348640E-03
    1      -12.505551   1.000000
    2        7.063016   1.000000
    3        9.030855   1.000000
    4        9.030855   1.000000
    5       16.565811   0.000000
    6       16.565811   0.000000
    7       17.028574   0.000000
    8       24.134890   0.000000
 
  0.1538462E+00  0.0000000E+00  0.0000000E+00  0.1348640E-03
    1      -12.297014   1.000000
    2        6.190689   1.000000
    3        8.787946   1.000000
    4        8.787946   1.000000
    5       16.883980   0.000000
    6       16.883980   0.000000
    7       17.368025   0.000000
    8       24.333878   0.000000
 
  0.1794872E+00  0.0000000E+00  0.0000000E+00  0.1348640E-03
    1      -12.051239   1.000000
    2        5.285399   1.000000
    3        8.540682   1.000000
    4        8.540682   1.000000
    5       17.201192   0.000000
    6       17.201192   0.000000
    7       17.667725   0.000000
    8       24.559002   0.000000
 
  0.2051282E+00  0.0000000E+00  0.0000000E+00  0.1348640E-03
    1      -11.768648   1.000000
    2        4.362435   1.000000
    3        8.296684   1.000000
    4        8.296684   1.000000
    5       17.502322   0.000000
    6       17.502322   0.000000
    7       17.924699   0.000000
    8       24.802956   0.000000
 
  0.2307692E+00  0.0000000E+00  0.0000000E+00  0.1348640E-03
    1      -11.449722   1.000000
    2        3.433286   1.000000
    3        8.061791   1.000000
    4        8.061791   1.000000
    5       17.775181   0.000000
    6       17.775182   0.000000
    7       18.140679   0.000000
    8       25.056976   0.000000
 
  0.2564103E+00  0.0000000E+00  0.0000000E+00  0.1348640E-03
    1      -11.095190   1.000000
    2        2.506665   1.000000
    3        7.840273   1.000000
    4        7.840274   1.000000
    5       18.010991   0.000000
    6       18.010991   0.000000
    7       18.319713   0.000000
    8       25.311336   0.000000
 
  0.2820513E+00  0.0000000E+00  0.0000000E+00  0.1348640E-03
    1      -10.706027   1.000000
    2        1.589709   1.000000
    3        7.635326   1.000000
    4        7.635326   1.000000
    5       18.205009   0.000000
    6       18.205009   0.000000
    7       18.466730   0.000000
    8       25.555895   0.000000
 
  0.3076923E+00  0.0000000E+00  0.0000000E+00  0.1348640E-03
    1      -10.283639   1.000000
    2        0.688698   1.000000
    3        7.449211   1.000000
    4        7.449211   1.000000
    5       18.356463   0.000000
    6       18.356463   0.000000
    7       18.586606   0.000000
    8       25.780873   0.000000
 
  0.3333333E+00  0.0000000E+00  0.0000000E+00  0.1348640E-03
    1       -9.829934   1.000000
    2       -0.190570   1.000000
    3        7.283821   1.000000
    4        7.283822   1.000000
    5       18.468211   0.000000
    6       18.468211   0.000000
    7       18.683633   0.000000
    8       25.978246   0.000000
 
  0.3589744E+00  0.0000000E+00  0.0000000E+00  0.1348640E-03
    1       -9.348152   1.000000
    2       -1.042024   1.000000
    3        7.140347   1.000000
    4        7.140347   1.000000
    5       18.545636   0.000000
    6       18.545636   0.000000
    7       18.761430   0.000000
    8       26.142381   0.000000
 
  0.3846154E+00  0.0000000E+00  0.0000000E+00  0.1348640E-03
    1       -8.843582   1.000000
    2       -1.857805   1.000000
    3        7.019727   1.000000
    4        7.019727   1.000000
    5       18.595636   0.000000
    6       18.595636   0.000000
    7       18.823028   0.000000
    8       26.271346   0.000000
 
  0.4102564E+00  0.0000000E+00  0.0000000E+00  0.1348640E-03
    1       -8.326120   1.000000
    2       -2.626279   1.000000
    3        6.922575   1.000000
    4        6.922575   1.000000
    5       18.625322   0.000000
    6       18.625322   0.000000
    7       18.869957   0.000000
    8       26.366481   0.000000
 
  0.4358974E+00  0.0000000E+00  0.0000000E+00  0.1348640E-03
    1       -7.816050   1.000000
    2       -3.325769   1.000000
    3        6.849366   1.000000
    4        6.849366   1.000000
    5       18.641268   0.000000
    6       18.641268   0.000000
    7       18.904016   0.000000
    8       26.431660   0.000000
 
  0.4615385E+00  0.0000000E+00  0.0000000E+00  0.1348640E-03
    1       -7.359335   1.000000
    2       -3.909103   1.000000
    3        6.800386   1.000000
    4        6.800386   1.000000
    5       18.648831   0.000000
    6       18.648831   0.000000
    7       18.926326   0.000000
    8       26.471618   0.000000
 
  0.4871795E+00  0.0000000E+00  0.0000000E+00  0.1348640E-03
    1       -7.058984   1.000000
    2       -4.273021   1.000000
    3        6.775861   1.000000
    4        6.775861   1.000000
    5       18.651647   0.000000
    6       18.651647   0.000000
    7       18.937271   0.000000
    8       26.490440   0.000000
 
  0.2564103E-01  0.2564103E-01  0.0000000E+00  0.1011480E-03
    1      -12.955844   1.000000
    2        9.649198   1.000000
    3        9.649199   1.000001
    4        9.693905   1.000001
    5       15.585676   0.000000
    6       15.740098   0.000000
    7       15.740098   0.000000
    8       23.688360   0.000000
 
  0.5128205E-01  0.2564103E-01  0.0000000E+00  0.4045921E-03
    1      -12.911354   1.000000
    2        9.344956   1.000000
    3        9.511267   1.000000
    4        9.658964   1.000000
    5       15.615046   0.000000
    6       15.911255   0.000000
    7       15.945361   0.000000
    8       23.729810   0.000000
 
  0.7692308E-01  0.2564103E-01  0.0000000E+00  0.4045921E-03
    1      -12.828777   1.000000
    2        8.810370   1.000000
    3        9.323959   1.000000
    4        9.570061   1.000000
    5       15.737342   0.000000
    6       16.150878   0.000000
    7       16.259848   0.000000
    8       23.807406   0.000000
 
  0.1025641E+00  0.2564103E-01  0.0000000E+00  0.4045921E-03
    1      -12.708221   1.000000
    2        8.123539   1.000000
    3        9.102219   1.000000
    4        9.423171   1.000000
    5       15.936849   0.000000
    6       16.440024   0.000000
    7       16.624772   0.000000
    8       23.920388   0.000000
 
  0.1282051E+00  0.2564103E-01  0.0000000E+00  0.4045921E-03
    1      -12.549834   1.000000
    2        7.335931   1.000000
    3        8.859923   1.000000
    4        9.232173   1.000000
    5       16.193670   0.000000
    6       16.759445   0.000000
    7       16.995173   0.000000
    8       24.067143   0.000000
 
  0.1538462E+00  0.2564103E-01  0.0000000E+00  0.4045921E-03
    1      -12.353814   1.000000
    2        6.483452   1.000000
    3        8.608633   1.000000
    4        9.011649   1.000000
    5       16.486802   0.000000
    6       17.090914   0.000000
    7       17.343330   0.000000
    8       24.244767   0.000000
 
  0.1794872E+00  0.2564103E-01  0.0000000E+00  0.4045921E-03
    1      -12.120446   1.000000
    2        5.590738   1.000000
    3        8.357446   1.000000
    4        8.774224   1.000000
    5       16.796146   0.000000
    6       17.417886   0.000000
    7       17.654867   0.000000
    8       24.448744   0.000000
 
  0.2051282E+00  0.2564103E-01  0.0000000E+00  0.4045921E-03
    1      -11.850120   1.000000
    2        4.675071   1.000000
    3        8.113265   1.000000
    4        8.530132   1.000000
    5       17.103778   0.000000
    6       17.725838   0.000000
    7       17.924473   0.000000
    8       24.673189   0.000000
 
  0.2307692E+00  0.2564103E-01  0.0000000E+00  0.4045921E-03
    1      -11.543296   1.000000
    2        3.749132   1.000000
    3        7.881319   1.000000
    4        8.287269   1.000000
    5       17.394552   0.000000
    6       18.002783   0.000000
    7       18.152427   0.000000
    8       24.911181   0.000000
 
  0.2564103E+00  0.2564103E-01  0.0000000E+00  0.4045921E-03
    1      -11.200601   1.000000
    2        2.822643   1.000000
    3        7.665453   1.000000
    4        8.051607   1.000000
    5       17.656878   0.000000
    6       18.239903   0.000000
    7       18.342083   0.000000
    8       25.155115   0.000000
 
  0.2820513E+00  0.2564103E-01  0.0000000E+00  0.4045921E-03
    1      -10.822944   1.000000
    2        1.903218   1.000000
    3        7.468469   1.000000
    4        7.827578   1.000000
    5       17.883145   0.000000
    6       18.432017   0.000000
    7       18.498008   0.000000
    8       25.396891   0.000000
 
  0.3076923E+00  0.2564103E-01  0.0000000E+00  0.4045921E-03
    1      -10.411510   1.000000
    2        0.997507   1.000000
    3        7.292432   1.000000
    4        7.618494   1.000000
    5       18.070105   0.000000
    6       18.577997   0.000000
    7       18.625066   0.000000
    8       25.628068   0.000000
 
  0.3333333E+00  0.2564103E-01  0.0000000E+00  0.4045921E-03
    1       -9.968065   1.000000
    2        0.111368   1.000000
    3        7.138904   1.000000
    4        7.426836   1.000000
    5       18.218522   0.000000
    6       18.680292   0.000000
    7       18.727674   0.000000
    8       25.840438   0.000000
 
  0.3589744E+00  0.2564103E-01  0.0000000E+00  0.4045921E-03
    1       -9.495317   1.000000
    2       -0.749234   1.000000
    3        7.008939   1.000000
    4        7.254546   1.000000
    5       18.332377   0.000000
    6       18.744219   0.000000
    7       18.809752   0.000000
    8       26.026670   0.000000
 
  0.3846154E+00  0.2564103E-01  0.0000000E+00  0.4045921E-03
    1       -8.997687   1.000000
    2       -1.577210   1.000000
    3        6.903239   1.000000
    4        7.103052   1.000000
    5       18.417769   0.000000
    6       18.776743   0.000000
    7       18.874574   0.000000
    8       26.181633   0.000000
 
  0.4102564E+00  0.2564103E-01  0.0000000E+00  0.4045921E-03
    1       -8.483146   1.000000
    2       -2.362585   1.000000
    3        6.822246   1.000000
    4        6.973407   1.000000
    5       18.481472   0.000000
    6       18.785391   0.000000
    7       18.924318   0.000000
    8       26.303180   0.000000
 
  0.4358974E+00  0.2564103E-01  0.0000000E+00  0.4045921E-03
    1       -7.967459   1.000000
    2       -3.087985   1.000000
    3        6.766215   1.000000
    4        6.866483   1.000000
    5       18.530192   0.000000
    6       18.777256   0.000000
    7       18.960782   0.000000
    8       26.392160   0.000000
 
  0.4615385E+00  0.2564103E-01  0.0000000E+00  0.4045921E-03
    1       -7.485350   1.000000
    2       -3.717577   1.000000
    3        6.735205   1.000000
    4        6.782905   1.000000
    5       18.569591   0.000000
    6       18.758310   0.000000
    7       18.985293   0.000000
    8       26.451407   0.000000
 
  0.4871795E+00  0.2564103E-01  0.0000000E+00  0.4045921E-03
    1       -7.116993   1.000000
    2       -4.170401   1.000000
    3        6.723291   1.000000
    4        6.729229   1.000000
    5       18.603894   0.000000
    6       18.732991   0.000000
    7       18.998625   0.000000
    8       26.484333   0.000000
 
 -0.4871795E+00  0.2564103E-01  0.0000000E+00  0.4045921E-03
    1       -7.005356   1.000000
    2       -4.303200   1.000000
    3        6.687974   1.000000
    4        6.748110   1.000000
    5       18.635518   0.000000
    6       18.703963   0.000000
    7       19.001004   0.000000
    8       26.493347   0.000000
 
 -0.4615385E+00  0.2564103E-01  0.0000000E+00  0.4045921E-03
    1       -7.219203   1.000000
    2       -4.047003   1.000000
    3        6.677335   1.000000
    4        6.791627   1.000000
    5       18.665047   0.000000
    6       18.672032   0.000000
    7       18.992583   0.000000
    8       26.479184   0.000000
 
 -0.4358974E+00  0.2564103E-01  0.0000000E+00  0.4045921E-03
    1       -7.638770   1.000000
    2       -3.521923   1.000000
    3        6.691549   1.000000
    4        6.859365   1.000000
    5       18.636062   0.000000
    6       18.691079   0.000000
    7       18.972940   0.000000
    8       26.440466   0.000000
 
 -0.4102564E+00  0.2564103E-01  0.0000000E+00  0.4045921E-03
    1       -8.137965   1.000000
    2       -2.854383   1.000000
    3        6.730764   1.000000
    4        6.950908   1.000000
    5       18.593146   0.000000
    6       18.710343   0.000000
    7       18.941762   0.000000
    8       26.374334   0.000000
 
 -0.3846154E+00  0.2564103E-01  0.0000000E+00  0.4045921E-03
    1       -8.655834   1.000000
    2       -2.106242   1.000000
    3        6.794959   1.000000
    4        7.065691   1.000000
    5       18.538704   0.000000
    6       18.717809   0.000000
    7       18.897972   0.000000
    8       26.277292   0.000000
 
 -0.3589744E+00  0.2564103E-01  0.0000000E+00  0.4045921E-03
    1       -9.165966   1.000000
    2       -1.305224   1.000000
    3        6.884009   1.000000
    4        7.202975   1.000000
    5       18.466809   0.000000
    6       18.706757   0.000000
    7       18.840199   0.000000
    8       26.146809   0.000000
 
 -0.3333333E+00  0.2564103E-01  0.0000000E+00  0.4045921E-03
    1       -9.655960   1.000000
    2       -0.465443   1.000000
    3        6.997608   1.000000
    4        7.361815   1.000000
    5       18.370796   0.000000
    6       18.669003   0.000000
    7       18.767117   0.000000
    8       25.982700   0.000000
 
 -0.3076923E+00  0.2564103E-01  0.0000000E+00  0.4045921E-03
    1      -10.119324   1.000000
    2        0.404406   1.000000
    3        7.135256   1.000000
    4        7.541057   1.000000
    5       18.244193   0.000000
    6       18.595056   0.000000
    7       18.678198   0.000000
    8       25.787913   0.000000
 
 -0.2820513E+00  0.2564103E-01  0.0000000E+00  0.4045921E-03
    1      -10.552327   1.000000
    2        1.297753   1.000000
    3        7.296150   1.000000
    4        7.739125   1.000000
    5       18.081700   0.000000
    6       18.477166   0.000000
    7       18.570767   0.000000
    8       25.568377   0.000000
 
 -0.2564103E+00  0.2564103E-01  0.0000000E+00  0.4045921E-03
    1      -10.952668   1.000000
    2        2.208726   1.000000
    3        7.479091   1.000000
    4        7.953838   1.000000
    5       17.880455   0.000000
    6       18.313027   0.000000
    7       18.438352   0.000000
    8       25.331854   0.000000
 
 -0.2307692E+00  0.2564103E-01  0.0000000E+00  0.4045921E-03
    1      -11.318777   1.000000
    2        3.131309   1.000000
    3        7.682428   1.000000
    4        8.182557   1.000000
    5       17.641126   0.000000
    6       18.102905   0.000000
    7       18.274624   0.000000
    8       25.087017   0.000000
 
 -0.2051282E+00  0.2564103E-01  0.0000000E+00  0.4045921E-03
    1      -11.649602   1.000000
    2        4.058536   1.000000
    3        7.903839   1.000000
    4        8.421492   1.000000
    5       17.368384   0.000000
    6       17.849237   0.000000
    7       18.074787   0.000000
    8       24.842491   0.000000
 
 -0.1794872E+00  0.2564103E-01  0.0000000E+00  0.4045921E-03
    1      -11.944322   1.000000
    2        4.982194   1.000000
    3        8.140256   1.000000
    4        8.665790   1.000000
    5       17.071067   0.000000
    6       17.558173   0.000000
    7       17.834942   0.000000
    8       24.606498   0.000000
 
 -0.1538462E+00  0.2564103E-01  0.0000000E+00  0.4045921E-03
    1      -12.202365   1.000000
    2        5.891696   1.000000
    3        8.387478   1.000000
    4        8.908863   1.000000
    5       16.761859   0.000000
    6       17.239696   0.000000
    7       17.552860   0.000000
    8       24.386569   0.000000
 
 -0.1282051E+00  0.2564103E-01  0.0000000E+00  0.4045921E-03
    1      -12.423323   1.000000
    2        6.772934   1.000000
    3        8.639832   1.000000
    4        9.142074   1.000000
    5       16.456565   0.000000
    6       16.906836   0.000000
    7       17.229982   0.000000
    8       24.189339   0.000000
 
 -0.1025641E+00  0.2564103E-01  0.0000000E+00  0.4045921E-03
    1      -12.606825   1.000000
    2        7.606373   1.000000
    3        8.889885   1.000000
    4        9.354365   1.000000
    5       16.173627   0.000000
    6       16.575094   0.000000
    7       16.874290   0.000000
    8       24.020219   0.000000
 
 -0.7692308E-01  0.2564103E-01  0.0000000E+00  0.4045921E-03
    1      -12.752617   1.000000
    2        8.363681   1.000000
    3        9.128190   1.000000
    4        9.532334   1.000000
    5       15.933226   0.000000
    6       16.262176   0.000000
    7       16.503996   0.000000
    8       23.883163   0.000000
 
 -0.5128205E-01  0.2564103E-01  0.0000000E+00  0.4045921E-03
    1      -12.860531   1.000000
    2        9.002462   1.000000
    3        9.343814   1.000000
    4        9.661343   1.000000
    5       15.755720   0.000000
    6       15.988359   0.000000
    7       16.151321   0.000000
    8       23.780572   0.000000
 
 -0.2564103E-01  0.2564103E-01  0.0000000E+00  0.2022961E-03
    1      -12.930420   1.000000
    2        9.448468   1.000000
    3        9.540187   1.000000
    4        9.728021   1.000000
    5       15.658679   0.000000
    6       15.779053   0.000000
    7       15.862248   0.000000
    8       23.713701   0.000000
 
  0.5128205E-01  0.5128205E-01  0.0000000E+00  0.1011480E-03
    1      -12.879579   1.000000
    2        9.344677   1.000000
    3        9.344677   1.000000
    4        9.498970   1.000000
    5       15.525439   0.000000
    6       16.113522   0.000000
    7       16.113523   0.000000
    8       23.749969   0.000000
 
  0.7692308E-01  0.5128205E-01  0.0000000E+00  0.4045921E-03
    1      -12.809715   1.000000
    2        8.940750   1.000000
    3        9.134754   1.000000
    4        9.442498   1.000000
    5       15.536928   0.000000
    6       16.378666   0.000000
    7       16.400519   0.000000
    8       23.800221   0.000000
 
  0.1025641E+00  0.5128205E-01  0.0000000E+00  0.4045921E-03
    1      -12.701852   1.000000
    2        8.320834   1.000000
    3        8.896323   1.000000
    4        9.361992   1.000000
    5       15.644346   0.000000
    6       16.688319   0.000000
    7       16.751227   0.000000
    8       23.879841   0.000000
 
  0.1282051E+00  0.5128205E-01  0.0000000E+00  0.4045921E-03
    1      -12.556116   1.000000
    2        7.579793   1.000000
    3        8.642568   1.000000
    4        9.225002   1.000000
    5       15.832415   0.000000
    6       17.024261   0.000000
    7       17.119115   0.000000
    8       23.987439   0.000000
 
  0.1538462E+00  0.5128205E-01  0.0000000E+00  0.4045921E-03
    1      -12.372693   1.000000
    2        6.759992   1.000000
    3        8.383998   1.000000
    4        9.042230   1.000000
    5       16.080478   0.000000
    6       17.369292   0.000000
    7       17.472695   0.000000
    8       24.120566   0.000000
 
  0.1794872E+00  0.5128205E-01  0.0000000E+00  0.4045921E-03
    1      -12.151843   1.000000
    2        5.889907   1.000000
    3        8.129062   1.000000
    4        8.827481   1.000000
    5       16.366401   0.000000
    6       17.707721   0.000000
    7       17.794107   0.000000
    8       24.276140   0.000000
 
  0.2051282E+00  0.5128205E-01  0.0000000E+00  0.4045921E-03
    1      -11.893916   1.000000
    2        4.989477   1.000000
    3        7.884031   1.000000
    4        8.593491   1.000000
    5       16.668996   0.000000
    6       18.025446   0.000000
    7       18.075398   0.000000
    8       24.450861   0.000000
 
  0.2307692E+00  0.5128205E-01  0.0000000E+00  0.4045921E-03
    1      -11.599340   1.000000
    2        4.073187   1.000000
    3        7.653712   1.000000
    4        8.350604   1.000000
    5       16.969539   0.000000
    6       18.310527   0.000000
    7       18.315043   0.000000
    8       24.641783   0.000000
 
  0.2564103E+00  0.5128205E-01  0.0000000E+00  0.4045921E-03
    1      -11.268703   1.000000
    2        3.151938   1.000000
    3        7.441628   1.000000
    4        8.106835   1.000000
    5       17.252487   0.000000
    6       18.515343   0.000000
    7       18.553807   0.000000
    8       24.846593   0.000000
 
  0.2820513E+00  0.5128205E-01  0.0000000E+00  0.4045921E-03
    1      -10.902793   1.000000
    2        2.234284   1.000000
    3        7.250445   1.000000
    4        7.868392   1.000000
    5       17.506556   0.000000
    6       18.680446   0.000000
    7       18.749614   0.000000
    8       25.063073   0.000000
 
  0.3076923E+00  0.5128205E-01  0.0000000E+00  0.4045921E-03
    1      -10.502696   1.000000
    2        1.327380   1.000000
    3        7.082022   1.000000
    4        7.639903   1.000000
    5       17.725082   0.000000
    6       18.815026   0.000000
    7       18.896042   0.000000
    8       25.287779   0.000000
 
  0.3333333E+00  0.5128205E-01  0.0000000E+00  0.4045921E-03
    1      -10.069970   1.000000
    2        0.437426   1.000000
    3        6.937714   1.000000
    4        7.424926   1.000000
    5       17.906208   0.000000
    6       18.923556   0.000000
    7       18.994972   0.000000
    8       25.514960   0.000000
 
  0.3589744E+00  0.5128205E-01  0.0000000E+00  0.4045921E-03
    1       -9.606942   1.000000
    2       -0.429583   1.000000
    3        6.818559   1.000000
    4        7.226129   1.000000
    5       18.052290   0.000000
    6       19.010133   0.000000
    7       19.051306   0.000000
    8       25.736244   0.000000
 
  0.3846154E+00  0.5128205E-01  0.0000000E+00  0.4045921E-03
    1       -9.117364   1.000000
    2       -1.266968   1.000000
    3        6.725108   1.000000
    4        7.045658   1.000000
    5       18.168537   0.000000
    6       19.071899   0.000000
    7       19.077990   0.000000
    8       25.941650   0.000000
 
  0.4102564E+00  0.5128205E-01  0.0000000E+00  0.4045921E-03
    1       -8.607699   1.000000
    2       -2.065905   1.000000
    3        6.657721   1.000000
    4        6.885168   1.000000
    5       18.261818   0.000000
    6       19.064480   0.000000
    7       19.130108   0.000000
    8       26.121669   0.000000
 
  0.4358974E+00  0.5128205E-01  0.0000000E+00  0.4045921E-03
    1       -8.090404   1.000000
    2       -2.812264   1.000000
    3        6.616472   1.000000
    4        6.745978   1.000000
    5       18.339132   0.000000
    6       19.036510   0.000000
    7       19.168184   0.000000
    8       26.269034   0.000000
 
  0.4615385E+00  0.5128205E-01  0.0000000E+00  0.4045921E-03
    1       -7.591881   1.000000
    2       -3.478254   1.000000
    3        6.601289   1.000000
    4        6.629176   1.000000
    5       18.406739   0.000000
    6       18.994545   0.000000
    7       19.193986   0.000000
    8       26.379739   0.000000
 
  0.4871795E+00  0.5128205E-01  0.0000000E+00  0.4045921E-03
    1       -7.173093   1.000000
    2       -4.002047   1.000000
    3        6.535682   1.000000
    4        6.612018   1.000000
    5       18.469419   0.000000
    6       18.943681   0.000000
    7       19.208575   0.000000
    8       26.452629   0.000000
 
 -0.4871795E+00  0.5128205E-01  0.0000000E+00  0.4045921E-03
    1       -6.959820   1.000000
    2       -4.257354   1.000000
    3        6.466258   1.000000
    4        6.648285   1.000000
    5       18.530274   0.000000
    6       18.887310   0.000000
    7       19.212412   0.000000
    8       26.487945   0.000000
 
 -0.4615385E+00  0.5128205E-01  0.0000000E+00  0.4045921E-03
    1       -7.071310   1.000000
    2       -4.124718   1.000000
    3        6.421506   1.000000
    4        6.709644   1.000000
    5       18.590415   0.000000
    6       18.826981   0.000000
    7       19.205819   0.000000
    8       26.486059   0.000000
 
 -0.4358974E+00  0.5128205E-01  0.0000000E+00  0.4045921E-03
    1       -7.439012   1.000000
    2       -3.672779   1.000000
    3        6.401977   1.000000
    4        6.795460   1.000000
    5       18.648990   0.000000
    6       18.762357   0.000000
    7       19.188577   0.000000
    8       26.446707   0.000000
 
 -0.4102564E+00  0.5128205E-01  0.0000000E+00  0.4045921E-03
    1       -7.920412   1.000000
    2       -3.044444   1.000000
    3        6.408081   1.000000
    4        6.905078   1.000000
    5       18.691283   0.000000
    6       18.703185   0.000000
    7       19.160251   0.000000
    8       26.369168   0.000000
 
 -0.3846154E+00  0.5128205E-01  0.0000000E+00  0.4045921E-03
    1       -8.435468   1.000000
    2       -2.320494   1.000000
    3        6.440067   1.000000
    4        7.037565   1.000000
    5       18.609902   0.000000
    6       18.748285   0.000000
    7       19.119838   0.000000
    8       26.253209   0.000000
 
 -0.3589744E+00  0.5128205E-01  0.0000000E+00  0.4045921E-03
    1       -8.949461   1.000000
    2       -1.536886   1.000000
    3        6.498104   1.000000
    4        7.191926   1.000000
    5       18.513026   0.000000
    6       18.778005   0.000000
    7       19.065440   0.000000
    8       26.100522   0.000000
 
 -0.3333333E+00  0.5128205E-01  0.0000000E+00  0.4045921E-03
    1       -9.446634   1.000000
    2       -0.710961   1.000000
    3        6.582141   1.000000
    4        7.366870   1.000000
    5       18.394607   0.000000
    6       18.785337   0.000000
    7       18.994192   0.000000
    8       25.915663   0.000000
 
 -0.3076923E+00  0.5128205E-01  0.0000000E+00  0.4045921E-03
    1       -9.919010   1.000000
    2        0.147189   1.000000
    3        6.691978   1.000000
    4        7.560847   1.000000
    5       18.248662   0.000000
    6       18.763398   0.000000
    7       18.901598   0.000000
    8       25.706201   0.000000
 
 -0.2820513E+00  0.5128205E-01  0.0000000E+00  0.4045921E-03
    1      -10.362121   1.000000
    2        1.030347   1.000000
    3        6.827193   1.000000
    4        7.771924   1.000000
    5       18.070324   0.000000
    6       18.706943   0.000000
    7       18.781181   0.000000
    8       25.481483   0.000000
 
 -0.2564103E+00  0.5128205E-01  0.0000000E+00  0.4045921E-03
    1      -10.773276   1.000000
    2        1.932466   1.000000
    3        6.986993   1.000000
    4        7.997472   1.000000
    5       17.857018   0.000000
    6       18.612087   0.000000
    7       18.626115   0.000000
    8       25.251015   0.000000
 
 -0.2307692E+00  0.5128205E-01  0.0000000E+00  0.4045921E-03
    1      -11.150694   1.000000
    2        2.847393   1.000000
    3        7.170299   1.000000
    4        8.234240   1.000000
    5       17.609563   0.000000
    6       18.425386   0.000000
    7       18.481813   0.000000
    8       25.022804   0.000000
 
 -0.2051282E+00  0.5128205E-01  0.0000000E+00  0.4045921E-03
    1      -11.493169   1.000000
    2        3.768246   1.000000
    3        7.375521   1.000000
    4        8.477924   1.000000
    5       17.332930   0.000000
    6       18.181463   0.000000
    7       18.309683   0.000000
    8       24.802738   0.000000
 
 -0.1794872E+00  0.5128205E-01  0.0000000E+00  0.4045921E-03
    1      -11.799830   1.000000
    2        4.686888   1.000000
    3        7.600498   1.000000
    4        8.722868   1.000000
    5       17.036356   0.000000
    6       17.894912   0.000000
    7       18.096067   0.000000
    8       24.594979   0.000000
 
 -0.1538462E+00  0.5128205E-01  0.0000000E+00  0.4045921E-03
    1      -12.070014   1.000000
    2        5.592921   1.000000
    3        7.842430   1.000000
    4        8.961581   1.000000
    5       16.733010   0.000000
    6       17.573806   0.000000
    7       17.839314   0.000000
    8       24.402746   0.000000
 
 -0.1282051E+00  0.5128205E-01  0.0000000E+00  0.4045921E-03
    1      -12.303256   1.000000
    2        6.472442   1.000000
    3        8.097891   1.000000
    4        9.184455   1.000000
    5       16.439588   0.000000
    6       17.230352   0.000000
    7       17.540013   0.000000
    8       24.229153   0.000000
 