C                                       
           1
     0.000000    1.781245    1.781245
     1.781245    0.000000    1.781245
     1.781245    1.781245    0.000000
   C 
     2
Direct configuration=     1
   0.87500000  0.87500000  0.87500000
   0.12500000  0.12500000  0.12500000
