       N       E                     dE             d eps       ncg     rms          rms(c)
DAV:   1     0.144881330285E+01    0.14488E+01   -0.59442E+03 19976   0.135E+03
DAV:   2    -0.210801180031E+02   -0.22529E+02   -0.22348E+02 32728   0.129E+02
DAV:   3    -0.212510652537E+02   -0.17095E+00   -0.17095E+00 21744   0.144E+01
DAV:   4    -0.212513782912E+02   -0.31304E-03   -0.31304E-03 28080   0.637E-01
DAV:   5    -0.212513784880E+02   -0.19677E-06   -0.19707E-06 21192   0.103E-02    0.397E+00
DAV:   6    -0.190345019757E+02    0.22169E+01   -0.15429E-01 20760   0.408E+00    0.281E+00
DAV:   7    -0.191437388114E+02   -0.10924E+00   -0.33844E-02 24144   0.204E+00    0.226E+00
DAV:   8    -0.191308002196E+02    0.12939E-01   -0.10330E-01 28520   0.289E+00    0.352E-01
DAV:   9    -0.191309780634E+02   -0.17784E-03   -0.31736E-04 19880   0.219E-01    0.212E-01
DAV:  10    -0.191310645068E+02   -0.86443E-04   -0.16130E-04 27072   0.129E-01    0.885E-02
DAV:  11    -0.191311138789E+02   -0.49372E-04   -0.23596E-05 22960   0.741E-02    0.625E-03
DAV:  12    -0.191311131523E+02    0.72665E-06   -0.30118E-07 28520   0.702E-03    0.586E-03
DAV:  13    -0.191311141778E+02   -0.10255E-05   -0.16223E-07 21672   0.552E-03    0.177E-03
DAV:  14    -0.191311140592E+02    0.11863E-06   -0.14985E-08  9920   0.161E-03    0.526E-04
DAV:  15    -0.191311140561E+02    0.30876E-08   -0.38670E-09  9920   0.629E-04
   1 F= -.19131114E+02 E0= -.19131114E+02  d E =0.000000E+00
