       N       E                     dE             d eps       ncg     rms          rms(c)
DAV:   1     0.725672677770E+00    0.72567E+00   -0.62207E+03 23336   0.138E+03
DAV:   2    -0.217908712202E+02   -0.22517E+02   -0.22315E+02 37024   0.133E+02
DAV:   3    -0.219317672892E+02   -0.14090E+00   -0.14090E+00 25872   0.134E+01
DAV:   4    -0.219319767695E+02   -0.20948E-03   -0.20948E-03 32672   0.496E-01
DAV:   5    -0.219319769166E+02   -0.14715E-06   -0.14715E-06 24872   0.726E-03    0.500E+00
DAV:   6    -0.195851682060E+02    0.23468E+01   -0.26448E-01 27512   0.481E+00    0.362E+00
DAV:   7    -0.197024896783E+02   -0.11732E+00   -0.44565E-02 27768   0.228E+00    0.285E+00
DAV:   8    -0.196673277116E+02    0.35162E-01   -0.15943E-01 32216   0.363E+00    0.622E-01
DAV:   9    -0.196680858772E+02   -0.75817E-03   -0.35018E-04 23616   0.292E-01    0.370E-01
DAV:  10    -0.196682792486E+02   -0.19337E-03   -0.13276E-04 26528   0.138E-01    0.147E-01
DAV:  11    -0.196683395982E+02   -0.60350E-04   -0.25510E-05 27776   0.769E-02    0.130E-02
DAV:  12    -0.196683412498E+02   -0.16516E-05   -0.43789E-07 31616   0.915E-03    0.312E-03
DAV:  13    -0.196683422885E+02   -0.10388E-05   -0.79557E-08 21984   0.395E-03    0.127E-03
DAV:  14    -0.196683426143E+02   -0.32574E-06   -0.22146E-08 11520   0.211E-03    0.600E-04
DAV:  15    -0.196683426423E+02   -0.28088E-07   -0.23577E-09 11520   0.571E-04
   1 F= -.19668343E+02 E0= -.19668343E+02  d E =0.000000E+00
