       N       E                     dE             d eps       ncg     rms          rms(c)
DAV:   1     0.858826879410E+00    0.85883E+00   -0.61528E+03 23320   0.137E+03
DAV:   2    -0.216501678398E+02   -0.22509E+02   -0.22286E+02 37544   0.132E+02
DAV:   3    -0.217964863443E+02   -0.14632E+00   -0.14632E+00 25224   0.137E+01
DAV:   4    -0.217967243910E+02   -0.23805E-03   -0.23805E-03 32928   0.542E-01
DAV:   5    -0.217967246236E+02   -0.23257E-06   -0.23258E-06 24512   0.788E-03    0.465E+00
DAV:   6    -0.194992234475E+02    0.22975E+01   -0.22952E-01 26888   0.460E+00    0.336E+00
DAV:   7    -0.196160807741E+02   -0.11686E+00   -0.39380E-02 27432   0.217E+00    0.265E+00
DAV:   8    -0.195882089912E+02    0.27872E-01   -0.13947E-01 32560   0.338E+00    0.533E-01
DAV:   9    -0.195888402484E+02   -0.63126E-03   -0.30849E-04 23488   0.267E-01    0.317E-01
DAV:  10    -0.195890021920E+02   -0.16194E-03   -0.14587E-04 26616   0.137E-01    0.128E-01
DAV:  11    -0.195890616699E+02   -0.59478E-04   -0.25142E-05 28736   0.760E-02    0.103E-02
DAV:  12    -0.195890631515E+02   -0.14816E-05   -0.42508E-07 30768   0.905E-03    0.343E-03
DAV:  13    -0.195890642146E+02   -0.10631E-05   -0.94053E-08 23504   0.428E-03    0.149E-03
DAV:  14    -0.195890645233E+02   -0.30874E-06   -0.23748E-08 11520   0.216E-03    0.582E-04
DAV:  15    -0.195890645440E+02   -0.20704E-07   -0.28589E-09 11520   0.609E-04
   1 F= -.19589065E+02 E0= -.19589065E+02  d E =0.000000E+00
