       N       E                     dE             d eps       ncg     rms          rms(c)
DAV:   1     0.807148792684E+00    0.80715E+00   -0.62283E+03 23256   0.138E+03
DAV:   2    -0.217989782733E+02   -0.22606E+02   -0.22425E+02 36848   0.134E+02
DAV:   3    -0.219390365658E+02   -0.14006E+00   -0.14006E+00 25672   0.135E+01
DAV:   4    -0.219392208655E+02   -0.18430E-03   -0.18430E-03 32920   0.501E-01
DAV:   5    -0.219392209298E+02   -0.64374E-07   -0.64494E-07 24768   0.637E-03    0.503E+00
DAV:   6    -0.195882550904E+02    0.23510E+01   -0.26737E-01 27552   0.483E+00    0.364E+00
DAV:   7    -0.197055330734E+02   -0.11728E+00   -0.44982E-02 27784   0.229E+00    0.287E+00
DAV:   8    -0.196697889477E+02    0.35744E-01   -0.16106E-01 32192   0.365E+00    0.629E-01
DAV:   9    -0.196705573265E+02   -0.76838E-03   -0.35362E-04 23632   0.294E-01    0.375E-01
DAV:  10    -0.196707530494E+02   -0.19572E-03   -0.13190E-04 26504   0.139E-01    0.149E-01
DAV:  11    -0.196708134702E+02   -0.60421E-04   -0.25556E-05 27776   0.770E-02    0.132E-02
DAV:  12    -0.196708151343E+02   -0.16641E-05   -0.43863E-07 31616   0.916E-03    0.311E-03
DAV:  13    -0.196708161717E+02   -0.10375E-05   -0.78760E-08 21936   0.393E-03    0.125E-03
DAV:  14    -0.196708164985E+02   -0.32671E-06   -0.21943E-08 11520   0.210E-03    0.601E-04
DAV:  15    -0.196708165269E+02   -0.28473E-07   -0.23288E-09 11520   0.569E-04
   1 F= -.19670817E+02 E0= -.19670817E+02  d E =0.000000E+00
