       N       E                     dE             d eps       ncg     rms          rms(c)
DAV:   1     0.807079305030E+00    0.80708E+00   -0.62283E+03 23256   0.138E+03
DAV:   2    -0.217989669078E+02   -0.22606E+02   -0.22425E+02 36848   0.134E+02
DAV:   3    -0.219390260196E+02   -0.14006E+00   -0.14006E+00 25672   0.135E+01
DAV:   4    -0.219392103225E+02   -0.18430E-03   -0.18430E-03 32920   0.501E-01
DAV:   5    -0.219392103870E+02   -0.64453E-07   -0.64496E-07 24768   0.637E-03    0.503E+00
DAV:   6    -0.195882507293E+02    0.23510E+01   -0.26736E-01 27552   0.483E+00    0.364E+00
DAV:   7    -0.197055287887E+02   -0.11728E+00   -0.44981E-02 27784   0.229E+00    0.287E+00
DAV:   8    -0.196697855277E+02    0.35743E-01   -0.16105E-01 32192   0.365E+00    0.629E-01
DAV:   9    -0.196705538913E+02   -0.76836E-03   -0.35361E-04 23632   0.294E-01    0.375E-01
DAV:  10    -0.196707496107E+02   -0.19572E-03   -0.13190E-04 26504   0.139E-01    0.149E-01
DAV:  11    -0.196708100314E+02   -0.60421E-04   -0.25556E-05 27776   0.770E-02    0.132E-02
DAV:  12    -0.196708116954E+02   -0.16640E-05   -0.43863E-07 31616   0.916E-03    0.311E-03
DAV:  13    -0.196708127329E+02   -0.10375E-05   -0.78761E-08 21936   0.393E-03    0.125E-03
DAV:  14    -0.196708130596E+02   -0.32673E-06   -0.21943E-08 11520   0.210E-03    0.601E-04
DAV:  15    -0.196708130881E+02   -0.28491E-07   -0.23288E-09 11520   0.569E-04
   1 F= -.19670813E+02 E0= -.19670813E+02  d E =0.000000E+00
