       N       E                     dE             d eps       ncg     rms          rms(c)
DAV:   1     0.756358025624E+00    0.75636E+00   -0.62786E+03 25024   0.139E+03
DAV:   2    -0.218512310671E+02   -0.22608E+02   -0.22395E+02 39680   0.134E+02
DAV:   3    -0.219827094177E+02   -0.13148E+00   -0.13148E+00 27144   0.132E+01
DAV:   4    -0.219828790002E+02   -0.16958E-03   -0.16958E-03 35632   0.471E-01
DAV:   5    -0.219828790575E+02   -0.57287E-07   -0.57269E-07 26384   0.577E-03    0.528E+00
DAV:   6    -0.195918538854E+02    0.23910E+01   -0.29479E-01 29680   0.500E+00    0.382E+00
DAV:   7    -0.197081683881E+02   -0.11631E+00   -0.48877E-02 29856   0.239E+00    0.302E+00
DAV:   8    -0.196670222396E+02    0.41146E-01   -0.17619E-01 34032   0.383E+00    0.695E-01
DAV:   9    -0.196678878377E+02   -0.86560E-03   -0.38913E-04 25328   0.313E-01    0.413E-01
DAV:  10    -0.196681041954E+02   -0.21636E-03   -0.12443E-04 28920   0.140E-01    0.162E-01
DAV:  11    -0.196681652669E+02   -0.61071E-04   -0.26085E-05 29448   0.779E-02    0.151E-02
DAV:  12    -0.196681670222E+02   -0.17553E-05   -0.45021E-07 34136   0.927E-03    0.316E-03
DAV:  13    -0.196681680497E+02   -0.10275E-05   -0.71897E-08 22032   0.376E-03    0.116E-03
DAV:  14    -0.196681683818E+02   -0.33210E-06   -0.20624E-08 12320   0.207E-03    0.609E-04
DAV:  15    -0.196681684143E+02   -0.32526E-07   -0.20844E-09 12320   0.547E-04
   1 F= -.19668168E+02 E0= -.19668168E+02  d E =0.000000E+00
