       N       E                     dE             d eps       ncg     rms          rms(c)
DAV:   1     0.928099287032E+00    0.92810E+00   -0.64489E+03 27192   0.141E+03
DAV:   2    -0.217334956888E+02   -0.22662E+02   -0.22413E+02 41984   0.138E+02
DAV:   3    -0.218453586377E+02   -0.11186E+00   -0.11186E+00 29632   0.126E+01
DAV:   4    -0.218454659709E+02   -0.10733E-03   -0.10733E-03 38536   0.390E-01
DAV:   5    -0.218454660048E+02   -0.33815E-07   -0.34043E-07 28736   0.421E-03    0.615E+00
DAV:   6    -0.193031394981E+02    0.25423E+01   -0.39396E-01 31928   0.563E+00    0.446E+00
DAV:   7    -0.194097817874E+02   -0.10664E+00   -0.61355E-02 32936   0.273E+00    0.354E+00
DAV:   8    -0.193509426558E+02    0.58839E-01   -0.22813E-01 35024   0.440E+00    0.906E-01
DAV:   9    -0.193521417602E+02   -0.11991E-02   -0.51876E-04 28032   0.371E-01    0.539E-01
DAV:  10    -0.193524130254E+02   -0.27127E-03   -0.10882E-04 33720   0.143E-01    0.207E-01
DAV:  11    -0.193524762184E+02   -0.63193E-04   -0.28203E-05 30600   0.808E-02    0.197E-02
DAV:  12    -0.193524781320E+02   -0.19136E-05   -0.50498E-07 37256   0.980E-03    0.343E-03
DAV:  13    -0.193524791410E+02   -0.10089E-05   -0.62413E-08 18824   0.353E-03    0.112E-03
DAV:  14    -0.193524794627E+02   -0.32173E-06   -0.17613E-08 13288   0.203E-03    0.641E-04
DAV:  15    -0.193524795061E+02   -0.43415E-07   -0.19034E-09 13288   0.543E-04
   1 F= -.19352480E+02 E0= -.19352480E+02  d E =0.000000E+00
