       N       E                     dE             d eps       ncg     rms          rms(c)
DAV:   1     0.877815549897E+00    0.87782E+00   -0.61859E+03 23312   0.138E+03
DAV:   2    -0.217837468934E+02   -0.22662E+02   -0.22483E+02 37080   0.133E+02
DAV:   3    -0.219240744606E+02   -0.14033E+00   -0.14033E+00 25664   0.136E+01
DAV:   4    -0.219242610892E+02   -0.18663E-03   -0.18663E-03 33128   0.501E-01
DAV:   5    -0.219242611824E+02   -0.93145E-07   -0.93009E-07 24752   0.676E-03    0.497E+00
DAV:   6    -0.195815583214E+02    0.23427E+01   -0.26163E-01 27520   0.479E+00    0.359E+00
DAV:   7    -0.196989109863E+02   -0.11735E+00   -0.44145E-02 27680   0.227E+00    0.284E+00
DAV:   8    -0.196643287286E+02    0.34582E-01   -0.15784E-01 32232   0.361E+00    0.615E-01
DAV:   9    -0.196650764797E+02   -0.74775E-03   -0.34679E-04 23592   0.290E-01    0.366E-01
DAV:  10    -0.196652674972E+02   -0.19102E-03   -0.13373E-04 26488   0.138E-01    0.146E-01
DAV:  11    -0.196653277540E+02   -0.60257E-04   -0.25454E-05 27824   0.768E-02    0.128E-02
DAV:  12    -0.196653293925E+02   -0.16385E-05   -0.43644E-07 31488   0.914E-03    0.312E-03
DAV:  13    -0.196653304326E+02   -0.10401E-05   -0.80415E-08 22136   0.397E-03    0.128E-03
DAV:  14    -0.196653307575E+02   -0.32484E-06   -0.22282E-08 11520   0.212E-03    0.599E-04
DAV:  15    -0.196653307851E+02   -0.27611E-07   -0.23893E-09 11520   0.574E-04
   1 F= -.19665331E+02 E0= -.19665331E+02  d E =0.000000E+00
