       N       E                     dE             d eps       ncg     rms          rms(c)
DAV:   1     0.796592665949E+00    0.79659E+00   -0.62864E+03 25000   0.139E+03
DAV:   2    -0.218591888428E+02   -0.22656E+02   -0.22400E+02 39576   0.135E+02
DAV:   3    -0.219891937857E+02   -0.13000E+00   -0.13000E+00 27056   0.131E+01
DAV:   4    -0.219893504555E+02   -0.15667E-03   -0.15667E-03 35720   0.460E-01
DAV:   5    -0.219893505150E+02   -0.59510E-07   -0.59284E-07 26168   0.549E-03    0.543E+00
DAV:   6    -0.195739344365E+02    0.24154E+01   -0.31119E-01 29728   0.510E+00    0.394E+00
DAV:   7    -0.196892443133E+02   -0.11531E+00   -0.51126E-02 30032   0.244E+00    0.311E+00
DAV:   8    -0.196449746971E+02    0.44270E-01   -0.18507E-01 33744   0.393E+00    0.732E-01
DAV:   9    -0.196458976733E+02   -0.92298E-03   -0.41081E-04 25456   0.323E-01    0.436E-01
DAV:  10    -0.196461250981E+02   -0.22742E-03   -0.12081E-04 29328   0.141E-01    0.170E-01
DAV:  11    -0.196461865815E+02   -0.61483E-04   -0.26444E-05 29216   0.784E-02    0.161E-02
DAV:  12    -0.196461883795E+02   -0.17980E-05   -0.45913E-07 34272   0.935E-03    0.322E-03
DAV:  13    -0.196461894033E+02   -0.10238E-05   -0.68920E-08 21080   0.369E-03    0.114E-03
DAV:  14    -0.196461897360E+02   -0.33266E-06   -0.19988E-08 12320   0.206E-03    0.614E-04
DAV:  15    -0.196461897707E+02   -0.34705E-07   -0.19880E-09 12320   0.539E-04
   1 F= -.19646190E+02 E0= -.19646190E+02  d E =0.000000E+00
