       N       E                     dE             d eps       ncg     rms          rms(c)
DAV:   1     0.529496737266E+00    0.52950E+00   -0.62399E+03 24984   0.139E+03
DAV:   2    -0.218366098962E+02   -0.22366E+02   -0.22164E+02 39600   0.133E+02
DAV:   3    -0.219682021515E+02   -0.13159E+00   -0.13159E+00 27288   0.131E+01
DAV:   4    -0.219683798623E+02   -0.17771E-03   -0.17771E-03 35592   0.479E-01
DAV:   5    -0.219683799402E+02   -0.77885E-07   -0.77106E-07 26392   0.596E-03    0.517E+00
DAV:   6    -0.195957574512E+02    0.23726E+01   -0.28227E-01 29648   0.492E+00    0.374E+00
DAV:   7    -0.197126296247E+02   -0.11687E+00   -0.47118E-02 29816   0.234E+00    0.295E+00
DAV:   8    -0.196739205749E+02    0.38709E-01   -0.16932E-01 34344   0.375E+00    0.666E-01
DAV:   9    -0.196747417511E+02   -0.82118E-03   -0.37144E-04 25264   0.304E-01    0.396E-01
DAV:  10    -0.196749490792E+02   -0.20733E-03   -0.12769E-04 28512   0.139E-01    0.156E-01
DAV:  11    -0.196750098521E+02   -0.60773E-04   -0.25828E-05 29640   0.775E-02    0.142E-02
DAV:  12    -0.196750115783E+02   -0.17263E-05   -0.44368E-07 33984   0.920E-03    0.313E-03
DAV:  13    -0.196750126102E+02   -0.10319E-05   -0.75168E-08 22776   0.384E-03    0.120E-03
DAV:  14    -0.196750129408E+02   -0.33060E-06   -0.21144E-08 12320   0.208E-03    0.608E-04
DAV:  15    -0.196750129714E+02   -0.30574E-07   -0.21795E-09 12320   0.555E-04
   1 F= -.19675013E+02 E0= -.19675013E+02  d E =0.000000E+00
