       N       E                     dE             d eps       ncg     rms          rms(c)
DAV:   1     0.684071122208E+00    0.68407E+00   -0.62414E+03 24976   0.138E+03
DAV:   2    -0.218439844313E+02   -0.22528E+02   -0.22260E+02 39528   0.134E+02
DAV:   3    -0.219764735028E+02   -0.13249E+00   -0.13249E+00 27224   0.133E+01
DAV:   4    -0.219766385903E+02   -0.16509E-03   -0.16509E-03 35600   0.474E-01
DAV:   5    -0.219766386662E+02   -0.75956E-07   -0.75956E-07 26296   0.592E-03    0.523E+00
DAV:   6    -0.195949369266E+02    0.23817E+01   -0.28846E-01 29680   0.496E+00    0.378E+00
DAV:   7    -0.197115566954E+02   -0.11662E+00   -0.47992E-02 29856   0.237E+00    0.299E+00
DAV:   8    -0.196716363729E+02    0.39920E-01   -0.17273E-01 34208   0.379E+00    0.680E-01
DAV:   9    -0.196724794726E+02   -0.84310E-03   -0.37974E-04 25272   0.308E-01    0.405E-01
DAV:  10    -0.196726913549E+02   -0.21188E-03   -0.12608E-04 28704   0.140E-01    0.159E-01
DAV:  11    -0.196727522797E+02   -0.60925E-04   -0.25951E-05 29528   0.777E-02    0.147E-02
DAV:  12    -0.196727540231E+02   -0.17434E-05   -0.44656E-07 34096   0.923E-03    0.314E-03
DAV:  13    -0.196727550527E+02   -0.10296E-05   -0.73602E-08 22480   0.381E-03    0.118E-03
DAV:  14    -0.196727553843E+02   -0.33165E-06   -0.20862E-08 12320   0.207E-03    0.609E-04
DAV:  15    -0.196727554159E+02   -0.31518E-07   -0.21279E-09 12320   0.550E-04
   1 F= -.19672755E+02 E0= -.19672755E+02  d E =0.000000E+00
