       N       E                     dE             d eps       ncg     rms          rms(c)
DAV:   1     0.379355966624E+00    0.37936E+00   -0.62923E+03 25056   0.139E+03
DAV:   2    -0.218629540991E+02   -0.22242E+02   -0.22005E+02 39152   0.135E+02
DAV:   3    -0.219881128980E+02   -0.12516E+00   -0.12516E+00 27280   0.130E+01
DAV:   4    -0.219882684701E+02   -0.15557E-03   -0.15557E-03 35792   0.453E-01
DAV:   5    -0.219882685294E+02   -0.59271E-07   -0.58974E-07 26424   0.512E-03    0.549E+00
DAV:   6    -0.195631626644E+02    0.24251E+01   -0.31766E-01 29800   0.514E+00    0.398E+00
DAV:   7    -0.196779980825E+02   -0.11484E+00   -0.51991E-02 30032   0.247E+00    0.314E+00
DAV:   8    -0.196325194550E+02    0.45479E-01   -0.18855E-01 33632   0.397E+00    0.747E-01
DAV:   9    -0.196334646614E+02   -0.94521E-03   -0.41944E-04 25480   0.327E-01    0.444E-01
DAV:  10    -0.196336962280E+02   -0.23157E-03   -0.11957E-04 29520   0.141E-01    0.173E-01
DAV:  11    -0.196337578390E+02   -0.61611E-04   -0.26581E-05 29144   0.786E-02    0.164E-02
DAV:  12    -0.196337596513E+02   -0.18123E-05   -0.46209E-07 34232   0.937E-03    0.324E-03
DAV:  13    -0.196337606739E+02   -0.10226E-05   -0.67998E-08 20896   0.366E-03    0.113E-03
DAV:  14    -0.196337610065E+02   -0.33263E-06   -0.19666E-08 12320   0.205E-03    0.615E-04
DAV:  15    -0.196337610419E+02   -0.35367E-07   -0.19638E-09 12320   0.537E-04
   1 F= -.19633761E+02 E0= -.19633761E+02  d E =0.000000E+00
