       N       E                     dE             d eps       ncg     rms          rms(c)
DAV:   1     0.895428907187E-01    0.89543E-01   -0.62486E+03 25064   0.139E+03
DAV:   2    -0.218503646373E+02   -0.21940E+02   -0.21742E+02 39360   0.133E+02
DAV:   3    -0.219798442183E+02   -0.12948E+00   -0.12948E+00 27472   0.131E+01
DAV:   4    -0.219800096983E+02   -0.16548E-03   -0.16548E-03 35224   0.463E-01
DAV:   5    -0.219800097577E+02   -0.59327E-07   -0.59669E-07 26472   0.587E-03    0.526E+00
DAV:   6    -0.195936840300E+02    0.23863E+01   -0.29160E-01 29680   0.498E+00    0.380E+00
DAV:   7    -0.197101580561E+02   -0.11647E+00   -0.48432E-02 29888   0.238E+00    0.300E+00
DAV:   8    -0.196696273516E+02    0.40531E-01   -0.17445E-01 34096   0.381E+00    0.687E-01
DAV:   9    -0.196704817659E+02   -0.85441E-03   -0.38461E-04 25288   0.311E-01    0.409E-01
DAV:  10    -0.196706958874E+02   -0.21412E-03   -0.12520E-04 28840   0.140E-01    0.161E-01
DAV:  11    -0.196707568870E+02   -0.61000E-04   -0.26021E-05 29496   0.778E-02    0.149E-02
DAV:  12    -0.196707586363E+02   -0.17493E-05   -0.44856E-07 34120   0.925E-03    0.315E-03
DAV:  13    -0.196707596648E+02   -0.10284E-05   -0.72683E-08 22264   0.378E-03    0.117E-03
DAV:  14    -0.196707599966E+02   -0.33182E-06   -0.20725E-08 12320   0.207E-03    0.609E-04
DAV:  15    -0.196707600286E+02   -0.32058E-07   -0.21083E-09 12320   0.549E-04
   1 F= -.19670760E+02 E0= -.19670760E+02  d E =0.000000E+00
