       N       E                     dE             d eps       ncg     rms          rms(c)
DAV:   1     0.426163627809E+00    0.42616E+00   -0.61692E+03 23352   0.138E+03
DAV:   2    -0.217702627672E+02   -0.22196E+02   -0.22022E+02 37216   0.132E+02
DAV:   3    -0.219073052407E+02   -0.13704E+00   -0.13704E+00 25408   0.134E+01
DAV:   4    -0.219075005013E+02   -0.19526E-03   -0.19526E-03 33208   0.507E-01
DAV:   5    -0.219075005690E+02   -0.67660E-07   -0.67660E-07 24592   0.651E-03    0.492E+00
DAV:   6    -0.195728265280E+02    0.23347E+01   -0.25602E-01 27464   0.476E+00    0.355E+00
DAV:   7    -0.196902070497E+02   -0.11738E+00   -0.43322E-02 27656   0.225E+00    0.280E+00
DAV:   8    -0.196567707999E+02    0.33436E-01   -0.15468E-01 32296   0.357E+00    0.601E-01
DAV:   9    -0.196574983188E+02   -0.72752E-03   -0.33973E-04 23568   0.286E-01    0.358E-01
DAV:  10    -0.196576846114E+02   -0.18629E-03   -0.13561E-04 26456   0.138E-01    0.143E-01
DAV:  11    -0.196577447347E+02   -0.60123E-04   -0.25372E-05 27960   0.766E-02    0.124E-02
DAV:  12    -0.196577463501E+02   -0.16154E-05   -0.43424E-07 31400   0.912E-03    0.315E-03
DAV:  13    -0.196577473934E+02   -0.10433E-05   -0.82418E-08 22344   0.402E-03    0.131E-03
DAV:  14    -0.196577477162E+02   -0.32277E-06   -0.22556E-08 11520   0.212E-03    0.597E-04
DAV:  15    -0.196577477428E+02   -0.26608E-07   -0.24590E-09 11520   0.580E-04
   1 F= -.19657748E+02 E0= -.19657748E+02  d E =0.000000E+00
