       N       E                     dE             d eps       ncg     rms          rms(c)
DAV:   1     0.117719894963E+01    0.11772E+01   -0.65709E+03 31136   0.142E+03
DAV:   2    -0.213217354638E+02   -0.22499E+02   -0.22262E+02 47208   0.140E+02
DAV:   3    -0.214209686225E+02   -0.99233E-01   -0.99233E-01 34176   0.121E+01
DAV:   4    -0.214210593553E+02   -0.90733E-04   -0.90733E-04 44176   0.341E-01
DAV:   5    -0.214210593812E+02   -0.25889E-07   -0.25889E-07 33016   0.344E-03    0.688E+00
DAV:   6    -0.187295136411E+02    0.26915E+01   -0.48745E-01 35608   0.622E+00    0.500E+00
DAV:   7    -0.188221537398E+02   -0.92640E-01   -0.70384E-02 38528   0.300E+00    0.398E+00
DAV:   8    -0.187493516796E+02    0.72802E-01   -0.27318E-01 38984   0.486E+00    0.108E+00
DAV:   9    -0.187508357015E+02   -0.14840E-02   -0.62418E-04 33376   0.410E-01    0.638E-01
DAV:  10    -0.187511377865E+02   -0.30208E-03   -0.10080E-04 38520   0.146E-01    0.243E-01
DAV:  11    -0.187512020061E+02   -0.64220E-04   -0.29749E-05 35200   0.828E-02    0.223E-02
DAV:  12    -0.187512039280E+02   -0.19218E-05   -0.55182E-07 42640   0.103E-02    0.340E-03
DAV:  13    -0.187512049129E+02   -0.98495E-06   -0.64817E-08 22088   0.361E-03    0.126E-03
DAV:  14    -0.187512052156E+02   -0.30266E-06   -0.16107E-08 15224   0.203E-03    0.710E-04
DAV:  15    -0.187512052676E+02   -0.52036E-07   -0.23097E-09 15224   0.614E-04
   1 F= -.18751205E+02 E0= -.18751205E+02  d E =0.000000E+00
