       N       E                     dE             d eps       ncg     rms          rms(c)
DAV:   1     0.483110687366E+00    0.48311E+00   -0.61842E+03 24904   0.138E+03
DAV:   2    -0.218072318591E+02   -0.22290E+02   -0.22079E+02 39360   0.133E+02
DAV:   3    -0.219458186611E+02   -0.13859E+00   -0.13859E+00 27368   0.134E+01
DAV:   4    -0.219460028830E+02   -0.18422E-03   -0.18422E-03 35440   0.495E-01
DAV:   5    -0.219460029504E+02   -0.67410E-07   -0.67372E-07 26296   0.637E-03    0.505E+00
DAV:   6    -0.195908238062E+02    0.23552E+01   -0.27029E-01 29568   0.484E+00    0.366E+00
DAV:   7    -0.197080449473E+02   -0.11722E+00   -0.45402E-02 29728   0.230E+00    0.288E+00
DAV:   8    -0.196717151413E+02    0.36330E-01   -0.16268E-01 34480   0.367E+00    0.637E-01
DAV:   9    -0.196724937077E+02   -0.77857E-03   -0.35651E-04 25200   0.296E-01    0.379E-01
DAV:  10    -0.196726917795E+02   -0.19807E-03   -0.13105E-04 28320   0.139E-01    0.150E-01
DAV:  11    -0.196727522581E+02   -0.60479E-04   -0.25603E-05 29704   0.771E-02    0.134E-02
DAV:  12    -0.196727539390E+02   -0.16809E-05   -0.43920E-07 33664   0.916E-03    0.311E-03
DAV:  13    -0.196727549753E+02   -0.10363E-05   -0.78180E-08 23368   0.392E-03    0.124E-03
DAV:  14    -0.196727553030E+02   -0.32775E-06   -0.21748E-08 12320   0.210E-03    0.603E-04
DAV:  15    -0.196727553319E+02   -0.28844E-07   -0.22949E-09 12320   0.565E-04
   1 F= -.19672755E+02 E0= -.19672755E+02  d E =0.000000E+00
