       N       E                     dE             d eps       ncg     rms          rms(c)
DAV:   1     0.588422894858E+00    0.58842E+00   -0.62387E+03 24928   0.138E+03
DAV:   2    -0.218295017357E+02   -0.22418E+02   -0.22151E+02 39536   0.134E+02
DAV:   3    -0.219633350196E+02   -0.13383E+00   -0.13383E+00 27376   0.134E+01
DAV:   4    -0.219635103775E+02   -0.17536E-03   -0.17536E-03 35344   0.487E-01
DAV:   5    -0.219635104375E+02   -0.59940E-07   -0.59940E-07 26368   0.611E-03    0.514E+00
DAV:   6    -0.195953376979E+02    0.23682E+01   -0.27923E-01 29600   0.490E+00    0.372E+00
DAV:   7    -0.197123165778E+02   -0.11698E+00   -0.46685E-02 29792   0.233E+00    0.293E+00
DAV:   8    -0.196742076936E+02    0.38109E-01   -0.16764E-01 34360   0.373E+00    0.658E-01
DAV:   9    -0.196750181171E+02   -0.81042E-03   -0.36784E-04 25264   0.302E-01    0.392E-01
DAV:  10    -0.196752231341E+02   -0.20502E-03   -0.12850E-04 28376   0.139E-01    0.155E-01
DAV:  11    -0.196752838356E+02   -0.60702E-04   -0.25772E-05 29704   0.774E-02    0.141E-02
DAV:  12    -0.196752855494E+02   -0.17137E-05   -0.44232E-07 33872   0.919E-03    0.312E-03
DAV:  13    -0.196752865821E+02   -0.10327E-05   -0.75842E-08 22992   0.386E-03    0.121E-03
DAV:  14    -0.196752869121E+02   -0.33000E-06   -0.21282E-08 12320   0.208E-03    0.606E-04
DAV:  15    -0.196752869422E+02   -0.30120E-07   -0.22093E-09 12320   0.558E-04
   1 F= -.19675287E+02 E0= -.19675287E+02  d E =0.000000E+00
