       N       E                     dE             d eps       ncg     rms          rms(c)
DAV:   1     0.566856149934E+00    0.56686E+00   -0.62282E+03 25024   0.139E+03
DAV:   2    -0.218351262778E+02   -0.22402E+02   -0.22176E+02 39408   0.133E+02
DAV:   3    -0.219721594572E+02   -0.13703E+00   -0.13703E+00 27248   0.134E+01
DAV:   4    -0.219723347970E+02   -0.17534E-03   -0.17534E-03 35616   0.483E-01
DAV:   5    -0.219723348539E+02   -0.56882E-07   -0.56470E-07 26400   0.578E-03    0.519E+00
DAV:   6    -0.195956633481E+02    0.23767E+01   -0.28504E-01 29648   0.494E+00    0.376E+00
DAV:   7    -0.197124288624E+02   -0.11677E+00   -0.47509E-02 29856   0.235E+00    0.297E+00
DAV:   8    -0.196731772491E+02    0.39252E-01   -0.17085E-01 34288   0.377E+00    0.672E-01
DAV:   9    -0.196740082230E+02   -0.83097E-03   -0.37502E-04 25272   0.306E-01    0.400E-01
DAV:  10    -0.196742176091E+02   -0.20939E-03   -0.12696E-04 28576   0.140E-01    0.158E-01
DAV:  11    -0.196742784507E+02   -0.60842E-04   -0.25882E-05 29592   0.775E-02    0.144E-02
DAV:  12    -0.196742801855E+02   -0.17349E-05   -0.44494E-07 34008   0.921E-03    0.313E-03
DAV:  13    -0.196742812166E+02   -0.10310E-05   -0.74487E-08 22696   0.383E-03    0.119E-03
DAV:  14    -0.196742815477E+02   -0.33112E-06   -0.21004E-08 12320   0.208E-03    0.609E-04
DAV:  15    -0.196742815787E+02   -0.30995E-07   -0.21563E-09 12320   0.553E-04
   1 F= -.19674282E+02 E0= -.19674282E+02  d E =0.000000E+00
