       N       E                     dE             d eps       ncg     rms          rms(c)
DAV:   1     0.565193165075E+00    0.56519E+00   -0.62329E+03 25024   0.138E+03
DAV:   2    -0.218159981496E+02   -0.22381E+02   -0.22158E+02 39592   0.133E+02
DAV:   3    -0.219521333336E+02   -0.13614E+00   -0.13614E+00 27320   0.134E+01
DAV:   4    -0.219523147085E+02   -0.18137E-03   -0.18137E-03 35248   0.491E-01
DAV:   5    -0.219523148014E+02   -0.92861E-07   -0.92613E-07 26512   0.626E-03    0.508E+00
DAV:   6    -0.195928629302E+02    0.23595E+01   -0.27323E-01 29552   0.486E+00    0.368E+00
DAV:   7    -0.197100161197E+02   -0.11715E+00   -0.45828E-02 29736   0.231E+00    0.290E+00
DAV:   8    -0.196730968240E+02    0.36919E-01   -0.16432E-01 34440   0.369E+00    0.644E-01
DAV:   9    -0.196738859032E+02   -0.78908E-03   -0.36018E-04 25232   0.298E-01    0.383E-01
DAV:  10    -0.196740862949E+02   -0.20039E-03   -0.13019E-04 28344   0.139E-01    0.152E-01
DAV:  11    -0.196741468497E+02   -0.60555E-04   -0.25657E-05 29688   0.772E-02    0.136E-02
DAV:  12    -0.196741485422E+02   -0.16925E-05   -0.44017E-07 33808   0.917E-03    0.311E-03
DAV:  13    -0.196741495774E+02   -0.10351E-05   -0.77416E-08 23272   0.390E-03    0.123E-03
DAV:  14    -0.196741499059E+02   -0.32855E-06   -0.21582E-08 12320   0.209E-03    0.604E-04
DAV:  15    -0.196741499351E+02   -0.29240E-07   -0.22666E-09 12320   0.563E-04
   1 F= -.19674150E+02 E0= -.19674150E+02  d E =0.000000E+00
