       N       E                     dE             d eps       ncg     rms          rms(c)
DAV:   1     0.670723274901E+00    0.67072E+00   -0.62299E+03 24992   0.139E+03
DAV:   2    -0.218478647511E+02   -0.22519E+02   -0.22291E+02 39568   0.134E+02
DAV:   3    -0.219798255577E+02   -0.13196E+00   -0.13196E+00 27264   0.132E+01
DAV:   4    -0.219800138407E+02   -0.18828E-03   -0.18828E-03 35528   0.482E-01
DAV:   5    -0.219800138949E+02   -0.54184E-07   -0.53958E-07 26456   0.583E-03    0.526E+00
DAV:   6    -0.195936812408E+02    0.23863E+01   -0.29161E-01 29704   0.498E+00    0.380E+00
DAV:   7    -0.197101547482E+02   -0.11647E+00   -0.48431E-02 29856   0.238E+00    0.300E+00
DAV:   8    -0.196696233696E+02    0.40531E-01   -0.17446E-01 34104   0.381E+00    0.688E-01
DAV:   9    -0.196704776938E+02   -0.85432E-03   -0.38458E-04 25288   0.311E-01    0.409E-01
DAV:  10    -0.196706918240E+02   -0.21413E-03   -0.12523E-04 28824   0.140E-01    0.161E-01
DAV:  11    -0.196707528156E+02   -0.60992E-04   -0.26017E-05 29496   0.778E-02    0.149E-02
DAV:  12    -0.196707545648E+02   -0.17493E-05   -0.44842E-07 34104   0.925E-03    0.315E-03
DAV:  13    -0.196707555933E+02   -0.10284E-05   -0.72682E-08 22312   0.378E-03    0.117E-03
DAV:  14    -0.196707559251E+02   -0.33183E-06   -0.20723E-08 12320   0.207E-03    0.609E-04
DAV:  15    -0.196707559572E+02   -0.32077E-07   -0.21085E-09 12320   0.549E-04
   1 F= -.19670756E+02 E0= -.19670756E+02  d E =0.000000E+00
