       N       E                     dE             d eps       ncg     rms          rms(c)
DAV:   1     0.169636354457E+01    0.16964E+01   -0.60552E+03 21456   0.136E+03
DAV:   2    -0.212954367367E+02   -0.22992E+02   -0.22767E+02 35120   0.131E+02
DAV:   3    -0.214643079057E+02   -0.16887E+00   -0.16887E+00 23472   0.144E+01
DAV:   4    -0.214646017522E+02   -0.29385E-03   -0.29385E-03 29912   0.608E-01
DAV:   5    -0.214646019397E+02   -0.18745E-06   -0.18741E-06 22888   0.995E-03    0.418E+00
DAV:   6    -0.192109709869E+02    0.22536E+01   -0.19091E-01 23208   0.442E+00    0.303E+00
DAV:   7    -0.193383910270E+02   -0.12742E+00   -0.32075E-02 24552   0.203E+00    0.238E+00
DAV:   8    -0.193202276956E+02    0.18163E-01   -0.11203E-01 30392   0.302E+00    0.419E-01
DAV:   9    -0.193208104802E+02   -0.58278E-03   -0.24901E-04 21584   0.237E-01    0.246E-01
DAV:  10    -0.193209153790E+02   -0.10490E-03   -0.16199E-04 25424   0.131E-01    0.107E-01
DAV:  11    -0.193209784855E+02   -0.63106E-04   -0.29560E-05 27040   0.800E-02    0.699E-03
DAV:  12    -0.193209791496E+02   -0.66404E-06   -0.42324E-07 28992   0.882E-03    0.470E-03
DAV:  13    -0.193209804844E+02   -0.13348E-05   -0.12009E-07 22312   0.483E-03    0.192E-03
DAV:  14    -0.193209807103E+02   -0.22592E-06   -0.27222E-08 10640   0.229E-03    0.523E-04
DAV:  15    -0.193209807212E+02   -0.10852E-07   -0.33677E-09 10640   0.641E-04
   1 F= -.19320981E+02 E0= -.19320981E+02  d E =0.000000E+00
