       N       E                     dE             d eps       ncg     rms          rms(c)
DAV:   1     0.569901329929E+00    0.56990E+00   -0.62918E+03 24992   0.139E+03
DAV:   2    -0.218600796645E+02   -0.22430E+02   -0.22247E+02 39480   0.135E+02
DAV:   3    -0.219881912463E+02   -0.12811E+00   -0.12811E+00 27216   0.131E+01
DAV:   4    -0.219883573510E+02   -0.16610E-03   -0.16611E-03 35496   0.465E-01
DAV:   5    -0.219883574372E+02   -0.86263E-07   -0.86263E-07 26544   0.587E-03    0.537E+00
DAV:   6    -0.195828903661E+02    0.24055E+01   -0.30452E-01 29696   0.506E+00    0.389E+00
DAV:   7    -0.196986443381E+02   -0.11575E+00   -0.50219E-02 29976   0.242E+00    0.307E+00
DAV:   8    -0.196556345133E+02    0.43010E-01   -0.18147E-01 33824   0.389E+00    0.717E-01
DAV:   9    -0.196565344066E+02   -0.89989E-03   -0.40242E-04 25400   0.319E-01    0.427E-01
DAV:  10    -0.196567574289E+02   -0.22302E-03   -0.12218E-04 29208   0.140E-01    0.167E-01
DAV:  11    -0.196568187417E+02   -0.61313E-04   -0.26298E-05 29328   0.782E-02    0.157E-02
DAV:  12    -0.196568205205E+02   -0.17788E-05   -0.45565E-07 34248   0.932E-03    0.319E-03
DAV:  13    -0.196568215457E+02   -0.10252E-05   -0.69934E-08 21456   0.371E-03    0.114E-03
DAV:  14    -0.196568218782E+02   -0.33250E-06   -0.20253E-08 12320   0.207E-03    0.612E-04
DAV:  15    -0.196568219120E+02   -0.33850E-07   -0.20248E-09 12320   0.542E-04
   1 F= -.19656822E+02 E0= -.19656822E+02  d E =0.000000E+00
