       N       E                     dE             d eps       ncg     rms          rms(c)
DAV:   1     0.888055399541E+00    0.88806E+00   -0.60706E+03 21464   0.136E+03
DAV:   2    -0.214947061890E+02   -0.22383E+02   -0.22165E+02 34768   0.131E+02
DAV:   3    -0.216475757144E+02   -0.15287E+00   -0.15287E+00 23424   0.139E+01
DAV:   4    -0.216478144667E+02   -0.23875E-03   -0.23875E-03 30328   0.566E-01
DAV:   5    -0.216478145734E+02   -0.10669E-06   -0.10668E-06 22592   0.836E-03    0.441E+00
DAV:   6    -0.193673832367E+02    0.22804E+01   -0.21195E-01 24200   0.454E+00    0.320E+00
DAV:   7    -0.194973168825E+02   -0.12993E+00   -0.35117E-02 24848   0.209E+00    0.251E+00
DAV:   8    -0.194743655085E+02    0.22951E-01   -0.12463E-01 30240   0.319E+00    0.477E-01
DAV:   9    -0.194750217095E+02   -0.65620E-03   -0.27468E-04 21704   0.253E-01    0.281E-01
DAV:  10    -0.194751508802E+02   -0.12917E-03   -0.15108E-04 24352   0.132E-01    0.120E-01
DAV:  11    -0.194752148549E+02   -0.63975E-04   -0.29052E-05 26968   0.800E-02    0.820E-03
DAV:  12    -0.194752156600E+02   -0.80516E-06   -0.42075E-07 28824   0.883E-03    0.391E-03
DAV:  13    -0.194752169249E+02   -0.12648E-05   -0.10160E-07 21880   0.445E-03    0.171E-03
DAV:  14    -0.194752171771E+02   -0.25222E-06   -0.27165E-08 10640   0.230E-03    0.550E-04
DAV:  15    -0.194752171936E+02   -0.16459E-07   -0.31956E-09 10640   0.639E-04
   1 F= -.19475217E+02 E0= -.19475217E+02  d E =0.000000E+00
