       N       E                     dE             d eps       ncg     rms          rms(c)
DAV:   1     0.130970128823E+01    0.13097E+01   -0.64815E+03 28840   0.141E+03
DAV:   2    -0.215662922565E+02   -0.22876E+02   -0.22645E+02 44376   0.140E+02
DAV:   3    -0.216723888992E+02   -0.10610E+00   -0.10610E+00 31672   0.124E+01
DAV:   4    -0.216724910013E+02   -0.10210E-03   -0.10210E-03 40880   0.368E-01
DAV:   5    -0.216724910304E+02   -0.29135E-07   -0.29135E-07 30816   0.386E-03    0.650E+00
DAV:   6    -0.190599576072E+02    0.26125E+01   -0.43834E-01 33560   0.591E+00    0.472E+00
DAV:   7    -0.191603025580E+02   -0.10034E+00   -0.65976E-02 35464   0.286E+00    0.375E+00
DAV:   8    -0.190944918893E+02    0.65811E-01   -0.25004E-01 36864   0.462E+00    0.991E-01
DAV:   9    -0.190958295075E+02   -0.13376E-02   -0.57068E-04 30480   0.391E-01    0.588E-01
DAV:  10    -0.190961173940E+02   -0.28789E-03   -0.10474E-04 36008   0.145E-01    0.225E-01
DAV:  11    -0.190961812464E+02   -0.63852E-04   -0.28998E-05 32784   0.818E-02    0.211E-02
DAV:  12    -0.190961831785E+02   -0.19321E-05   -0.52706E-07 39392   0.100E-02    0.343E-03
DAV:  13    -0.190961841777E+02   -0.99919E-06   -0.62976E-08 19992   0.354E-03    0.117E-03
DAV:  14    -0.190961844912E+02   -0.31350E-06   -0.16722E-08 14168   0.202E-03    0.668E-04
DAV:  15    -0.190961845387E+02   -0.47471E-07   -0.20600E-09 14168   0.571E-04
   1 F= -.19096185E+02 E0= -.19096185E+02  d E =0.000000E+00
