       N       E                     dE             d eps       ncg     rms          rms(c)
DAV:   1     0.661673283574E+00    0.66167E+00   -0.63605E+03 27000   0.140E+03
DAV:   2    -0.218299660481E+02   -0.22492E+02   -0.22255E+02 42112   0.136E+02
DAV:   3    -0.219481097429E+02   -0.11814E+00   -0.11814E+00 29616   0.128E+01
DAV:   4    -0.219482381788E+02   -0.12844E-03   -0.12844E-03 38344   0.419E-01
DAV:   5    -0.219482382156E+02   -0.36756E-07   -0.36756E-07 28656   0.478E-03    0.581E+00
DAV:   6    -0.194681339819E+02    0.24801E+01   -0.35386E-01 32080   0.537E+00    0.421E+00
DAV:   7    -0.195796102875E+02   -0.11148E+00   -0.56648E-02 32664   0.259E+00    0.333E+00
DAV:   8    -0.195275814744E+02    0.52029E-01   -0.20763E-01 35624   0.418E+00    0.825E-01
DAV:   9    -0.195286496153E+02   -0.10681E-02   -0.46794E-04 27648   0.349E-01    0.491E-01
DAV:  10    -0.195289019575E+02   -0.25234E-03   -0.11358E-04 32968   0.142E-01    0.190E-01
DAV:  11    -0.195289643587E+02   -0.62401E-04   -0.27380E-05 30776   0.798E-02    0.182E-02
DAV:  12    -0.195289662307E+02   -0.18721E-05   -0.48326E-07 37272   0.958E-03    0.336E-03
DAV:  13    -0.195289672464E+02   -0.10157E-05   -0.64002E-08 20112   0.357E-03    0.111E-03
DAV:  14    -0.195289675748E+02   -0.32842E-06   -0.18620E-08 13288   0.205E-03    0.627E-04
DAV:  15    -0.195289676145E+02   -0.39650E-07   -0.18603E-09 13288   0.531E-04
   1 F= -.19528968E+02 E0= -.19528968E+02  d E =0.000000E+00
