       N       E                     dE             d eps       ncg     rms          rms(c)
DAV:   1     0.574570134899E+00    0.57457E+00   -0.62364E+03 25032   0.139E+03
DAV:   2    -0.218431770958E+02   -0.22418E+02   -0.22193E+02 39696   0.134E+02
DAV:   3    -0.219725869248E+02   -0.12941E+00   -0.12941E+00 27128   0.131E+01
DAV:   4    -0.219727573434E+02   -0.17042E-03   -0.17042E-03 35544   0.477E-01
DAV:   5    -0.219727574020E+02   -0.58576E-07   -0.58546E-07 26232   0.592E-03    0.520E+00
DAV:   6    -0.195956251043E+02    0.23771E+01   -0.28535E-01 29624   0.494E+00    0.376E+00
DAV:   7    -0.197123781289E+02   -0.11675E+00   -0.47553E-02 29880   0.235E+00    0.297E+00
DAV:   8    -0.196730648232E+02    0.39313E-01   -0.17101E-01 34280   0.377E+00    0.673E-01
DAV:   9    -0.196738969858E+02   -0.83216E-03   -0.37541E-04 25288   0.306E-01    0.400E-01
DAV:  10    -0.196741065974E+02   -0.20961E-03   -0.12686E-04 28616   0.140E-01    0.158E-01
DAV:  11    -0.196741674532E+02   -0.60856E-04   -0.25891E-05 29528   0.776E-02    0.144E-02
DAV:  12    -0.196741691891E+02   -0.17358E-05   -0.44544E-07 34088   0.922E-03    0.313E-03
DAV:  13    -0.196741702200E+02   -0.10310E-05   -0.74374E-08 22648   0.382E-03    0.119E-03
DAV:  14    -0.196741705512E+02   -0.33118E-06   -0.21014E-08 12320   0.208E-03    0.609E-04
DAV:  15    -0.196741705823E+02   -0.31053E-07   -0.21524E-09 12320   0.553E-04
   1 F= -.19674171E+02 E0= -.19674171E+02  d E =0.000000E+00
