       N       E                     dE             d eps       ncg     rms          rms(c)
DAV:   1     0.105852882876E+01    0.10585E+01   -0.62100E+03 23288   0.138E+03
DAV:   2    -0.217458921039E+02   -0.22804E+02   -0.22606E+02 37288   0.133E+02
DAV:   3    -0.218887720959E+02   -0.14288E+00   -0.14288E+00 25544   0.137E+01
DAV:   4    -0.218889717151E+02   -0.19962E-03   -0.19962E-03 32680   0.514E-01
DAV:   5    -0.218889718508E+02   -0.13566E-06   -0.13566E-06 24816   0.733E-03    0.486E+00
DAV:   6    -0.195621017683E+02    0.23269E+01   -0.25053E-01 27384   0.472E+00    0.352E+00
DAV:   7    -0.196794645199E+02   -0.11736E+00   -0.42514E-02 27600   0.224E+00    0.277E+00
DAV:   8    -0.196471596681E+02    0.32305E-01   -0.15156E-01 32360   0.354E+00    0.587E-01
DAV:   9    -0.196478674068E+02   -0.70774E-03   -0.33319E-04 23528   0.282E-01    0.350E-01
DAV:  10    -0.196480489288E+02   -0.18152E-03   -0.13752E-04 26432   0.138E-01    0.140E-01
DAV:  11    -0.196481089053E+02   -0.59976E-04   -0.25299E-05 28184   0.765E-02    0.120E-02
DAV:  12    -0.196481104946E+02   -0.15893E-05   -0.43183E-07 31176   0.910E-03    0.318E-03
DAV:  13    -0.196481115407E+02   -0.10461E-05   -0.84557E-08 22824   0.407E-03    0.134E-03
DAV:  14    -0.196481118612E+02   -0.32048E-06   -0.22689E-08 11520   0.212E-03    0.594E-04
DAV:  15    -0.196481118864E+02   -0.25177E-07   -0.25441E-09 11520   0.586E-04
   1 F= -.19648112E+02 E0= -.19648112E+02  d E =0.000000E+00
