       N       E                     dE             d eps       ncg     rms          rms(c)
DAV:   1     0.358479662595E+00    0.35848E+00   -0.62971E+03 25056   0.139E+03
DAV:   2    -0.218581716243E+02   -0.22217E+02   -0.21989E+02 39400   0.134E+02
DAV:   3    -0.219850738266E+02   -0.12690E+00   -0.12690E+00 27288   0.130E+01
DAV:   4    -0.219852279128E+02   -0.15409E-03   -0.15409E-03 35712   0.458E-01
DAV:   5    -0.219852279560E+02   -0.43250E-07   -0.44312E-07 26488   0.535E-03    0.531E+00
DAV:   6    -0.195894566713E+02    0.23958E+01   -0.29800E-01 29728   0.502E+00    0.385E+00
DAV:   7    -0.197055978045E+02   -0.11614E+00   -0.49319E-02 29872   0.240E+00    0.304E+00
DAV:   8    -0.196638346828E+02    0.41763E-01   -0.17794E-01 33928   0.385E+00    0.702E-01
DAV:   9    -0.196647116185E+02   -0.87694E-03   -0.39376E-04 25360   0.315E-01    0.418E-01
DAV:  10    -0.196649302135E+02   -0.21859E-03   -0.12366E-04 29000   0.140E-01    0.164E-01
DAV:  11    -0.196649913535E+02   -0.61140E-04   -0.26152E-05 29400   0.780E-02    0.153E-02
DAV:  12    -0.196649931163E+02   -0.17628E-05   -0.45199E-07 34120   0.928E-03    0.317E-03
DAV:  13    -0.196649941426E+02   -0.10264E-05   -0.71109E-08 21792   0.374E-03    0.116E-03
DAV:  14    -0.196649944749E+02   -0.33224E-06   -0.20534E-08 12320   0.207E-03    0.610E-04
DAV:  15    -0.196649945079E+02   -0.33003E-07   -0.20607E-09 12320   0.545E-04
   1 F= -.19664995E+02 E0= -.19664995E+02  d E =0.000000E+00
