       N       E                     dE             d eps       ncg     rms          rms(c)
DAV:   1     0.114292663370E+01    0.11429E+01   -0.62678E+03 25088   0.139E+03
DAV:   2    -0.218219395183E+02   -0.22965E+02   -0.22749E+02 39616   0.134E+02
DAV:   3    -0.219579747661E+02   -0.13604E+00   -0.13604E+00 27224   0.134E+01
DAV:   4    -0.219581520636E+02   -0.17730E-03   -0.17730E-03 35312   0.485E-01
DAV:   5    -0.219581521296E+02   -0.65991E-07   -0.65963E-07 26384   0.621E-03    0.511E+00
DAV:   6    -0.195943689746E+02    0.23638E+01   -0.27621E-01 29608   0.488E+00    0.370E+00
DAV:   7    -0.197114413678E+02   -0.11707E+00   -0.46253E-02 29760   0.232E+00    0.292E+00
DAV:   8    -0.196739290758E+02    0.37512E-01   -0.16598E-01 34424   0.371E+00    0.651E-01
DAV:   9    -0.196747286989E+02   -0.79962E-03   -0.36376E-04 25256   0.300E-01    0.387E-01
DAV:  10    -0.196749314170E+02   -0.20272E-03   -0.12937E-04 28296   0.139E-01    0.153E-01
DAV:  11    -0.196749920420E+02   -0.60625E-04   -0.25712E-05 29688   0.773E-02    0.138E-02
DAV:  12    -0.196749937467E+02   -0.17047E-05   -0.44108E-07 33768   0.918E-03    0.312E-03
DAV:  13    -0.196749947807E+02   -0.10340E-05   -0.76668E-08 23112   0.388E-03    0.122E-03
DAV:  14    -0.196749951100E+02   -0.32933E-06   -0.21430E-08 12320   0.209E-03    0.606E-04
DAV:  15    -0.196749951397E+02   -0.29664E-07   -0.22347E-09 12320   0.560E-04
   1 F= -.19674995E+02 E0= -.19674995E+02  d E =0.000000E+00
