       N       E                     dE             d eps       ncg     rms          rms(c)
DAV:   1     0.863055127283E+00    0.86306E+00   -0.61932E+03 23304   0.138E+03
DAV:   2    -0.217678049164E+02   -0.22631E+02   -0.22383E+02 37248   0.133E+02
DAV:   3    -0.219064274733E+02   -0.13862E+00   -0.13862E+00 25488   0.135E+01
DAV:   4    -0.219066148841E+02   -0.18741E-03   -0.18741E-03 33040   0.509E-01
DAV:   5    -0.219066149460E+02   -0.61853E-07   -0.61864E-07 24648   0.649E-03    0.491E+00
DAV:   6    -0.195723369502E+02    0.23343E+01   -0.25574E-01 27496   0.476E+00    0.355E+00
DAV:   7    -0.196897174937E+02   -0.11738E+00   -0.43280E-02 27656   0.225E+00    0.280E+00
DAV:   8    -0.196563382446E+02    0.33379E-01   -0.15452E-01 32312   0.357E+00    0.601E-01
DAV:   9    -0.196570647551E+02   -0.72651E-03   -0.33936E-04 23560   0.286E-01    0.357E-01
DAV:  10    -0.196572508176E+02   -0.18606E-03   -0.13571E-04 26432   0.138E-01    0.143E-01
DAV:  11    -0.196573109281E+02   -0.60111E-04   -0.25367E-05 27968   0.766E-02    0.124E-02
DAV:  12    -0.196573125416E+02   -0.16135E-05   -0.43405E-07 31344   0.912E-03    0.315E-03
DAV:  13    -0.196573135858E+02   -0.10442E-05   -0.82566E-08 22392   0.402E-03    0.131E-03
DAV:  14    -0.196573139084E+02   -0.32262E-06   -0.22550E-08 11520   0.212E-03    0.597E-04
DAV:  15    -0.196573139349E+02   -0.26451E-07   -0.24614E-09 11520   0.580E-04
   1 F= -.19657314E+02 E0= -.19657314E+02  d E =0.000000E+00
