 vasp.6.1.2 22Jul20 (build Mar 11 2021 17:42:27) complex                        
  
 executed on             LinuxIFC date 2021.03.19  16:24:58
 running on   40 total cores
 distrk:  each k-point on   20 cores,    2 groups
 distr:  one band on NCORE=  10 cores,    2 groups


--------------------------------------------------------------------------------------------------------


 INCAR:
 POTCAR:    PAW_PBE C 08Apr2002                   
 POTCAR:    PAW_PBE C 08Apr2002                   
   VRHFIN =C: s2p2                                                                                  
   LEXCH  = PE                                                                                      
   EATOM  =   147.1560 eV,   10.8157 Ry                                                             
                                                                                                    
   TITEL  = PAW_PBE C 08Apr2002                                                                     
   LULTRA =        F    use ultrasoft PP ?                                                          
   IUNSCR =        1    unscreen: 0-lin 1-nonlin 2-no                                               
   RPACOR =    1.200    partial core radius                                                         
   POMASS =   12.011; ZVAL   =    4.000    mass and valenz                                          
   RCORE  =    1.500    outmost cutoff radius                                                       
   RWIGS  =    1.630; RWIGS  =    0.863    wigner-seitz radius (au A)                               
   ENMAX  =  400.000; ENMIN  =  300.000 eV                                                          
   ICORE  =        2    local potential                                                             
   LCOR   =        T    correct aug charges                                                         
   LPAW   =        T    paw PP                                                                      
   EAUG   =  644.873                                                                                
   DEXC   =    0.000                                                                                
   RMAX   =    1.529    core radius for proj-oper                                                   
   RAUG   =    1.300    factor for augmentation sphere                                              
   RDEP   =    1.501    radius for radial grids                                                     
   RDEPT  =    1.300    core radius for aug-charge                                                  
                                                                                                    
   Atomic configuration                                                                             
    4 entries                                                                                       
     n  l   j            E        occ.                                                              
     1  0  0.50      -273.3789   2.0000                                                             
     2  0  0.50       -13.7508   2.0000                                                             
     2  1  0.50        -5.2854   2.0000                                                             
     3  2  1.50        -5.4423   0.0000                                                             
   Description                                                                                      
     l       E           TYP  RCUT    TYP  RCUT                                                     
     0    -13.7508458     23  1.200                                                                 
     0     -8.2022199     23  1.200                                                                 
     1     -5.2854383     23  1.500                                                                 
     1     34.0145650     23  1.500                                                                 
     2     -5.4423304      7  1.500                                                                 
  local pseudopotential read in
  partial core-charges read in
  partial kinetic energy density read in
  atomic valenz-charges read in
  non local Contribution for L=           0  read in
    real space projection operators read in
  non local Contribution for L=           0  read in
    real space projection operators read in
  non local Contribution for L=           1  read in
    real space projection operators read in
  non local Contribution for L=           1  read in
    real space projection operators read in
    PAW grid and wavefunctions read in
 
   number of l-projection  operators is LMAX  =           4
   number of lm-projection operators is LMMAX =           8
 
  PAW_PBE C 08Apr2002                   :
 energy of atom  1       EATOM= -147.1560
 kinetic energy error for atom=    0.0016 (will be added to EATOM!!)
 
 
 POSCAR: carbon
  positions in direct lattice
  No initial velocities read in

 METAGGA = R2SCA    LMAXTAU =  6    LMIXTAU =  T

 exchange correlation table for  LEXCH =        8
   RHO(1)=    0.500       N(1)  =     2000
   RHO(2)=  100.500       N(2)  =     4000
 


--------------------------------------------------------------------------------------------------------


 ion  position               nearest neighbor table
   1  0.875  0.875  0.875-   2 1.45   2 1.45   2 1.45   2 1.45
   2  0.125  0.125  0.125-   1 1.45   1 1.45   1 1.45   1 1.45
 
  LATTYP: Found a face centered cubic cell.
 ALAT       =     3.3530000000
  
  Lattice vectors:
  
 A1 = (   0.0000000000,   1.6765000000,   1.6765000000)
 A2 = (   1.6765000000,   0.0000000000,   1.6765000000)
 A3 = (   1.6765000000,   1.6765000000,   0.0000000000)


Analysis of symmetry for initial positions (statically):
=====================================================================
 Subroutine PRICEL returns:
 Original cell was already a primitive cell.
 

 Routine SETGRP: Setting up the symmetry group for a 
 face centered cubic supercell.


 Subroutine GETGRP returns: Found 48 space group operations
 (whereof 12 operations were pure point group operations)
 out of a pool of 48 trial point group operations.


The static configuration has the point symmetry D_3d.
 The point group associated with its full space group is O_h .


Analysis of symmetry for dynamics (positions and initial velocities):
=====================================================================
 Subroutine PRICEL returns:
 Original cell was already a primitive cell.
 

 Routine SETGRP: Setting up the symmetry group for a 
 face centered cubic supercell.


 Subroutine GETGRP returns: Found 48 space group operations
 (whereof 12 operations were pure point group operations)
 out of a pool of 48 trial point group operations.


The dynamic configuration has the point symmetry D_3d.
 The point group associated with its full space group is O_h .


 Subroutine INISYM returns: Found 48 space group operations
 (whereof 12 operations are pure point group operations),
 and found     1 'primitive' translations


----------------------------------------------------------------------------------------

                                     Primitive cell                                     

  volume of cell :       9.4241

  direct lattice vectors                    reciprocal lattice vectors
     0.000000000  1.676500000  1.676500000    -0.298240382  0.298240382  0.298240382
     1.676500000  0.000000000  1.676500000     0.298240382 -0.298240382  0.298240382
     1.676500000  1.676500000  0.000000000     0.298240382  0.298240382 -0.298240382

  length of vectors
     2.370929037  2.370929037  2.370929037     0.516567494  0.516567494  0.516567494

  position of ions in fractional coordinates (direct lattice)
     0.875000000  0.875000000  0.875000000
     0.125000000  0.125000000  0.125000000

  ion indices of the primitive-cell ions
   primitive index   ion index
                 1           1
                 2           2

----------------------------------------------------------------------------------------

 
 

Automatic generation of k-mesh.
 generate k-points for:   41   41   41
Space group operators:
 irot       det(A)        alpha          n_x          n_y          n_z        tau_x        tau_y        tau_z
    1     1.000000     0.000000     1.000000     0.000000     0.000000     0.000000     0.000000     0.000000
    2    -1.000000     0.000000     1.000000     0.000000     0.000000     0.000000     0.000000     0.000000
    3     1.000000   120.000000    -0.577350    -0.577350    -0.577350     0.000000     0.000000     0.000000
    4    -1.000000   120.000000    -0.577350    -0.577350    -0.577350     0.000000     0.000000     0.000000
    5     1.000000   120.000000     0.577350     0.577350     0.577350     0.000000     0.000000     0.000000
    6    -1.000000   120.000000     0.577350     0.577350     0.577350     0.000000     0.000000     0.000000
    7     1.000000   180.000000     0.000000    -0.707107     0.707107     0.000000     0.000000     0.000000
    8    -1.000000   180.000000     0.000000    -0.707107     0.707107     0.000000     0.000000     0.000000
    9     1.000000   180.000000     0.707107    -0.707107     0.000000     0.000000     0.000000     0.000000
   10    -1.000000   180.000000     0.707107    -0.707107     0.000000     0.000000     0.000000     0.000000
   11     1.000000   180.000000     0.707107     0.000000    -0.707107     0.000000     0.000000     0.000000
   12    -1.000000   180.000000     0.707107     0.000000    -0.707107     0.000000     0.000000     0.000000
   13     1.000000    90.000000     0.000000     0.000000    -1.000000    -0.500000     0.000000     0.000000
   14    -1.000000    90.000000     0.000000     0.000000    -1.000000    -0.500000     0.000000     0.000000
   15     1.000000   180.000000     0.000000     0.707107     0.707107    -0.500000     0.000000     0.000000
   16    -1.000000   180.000000     0.000000     0.707107     0.707107    -0.500000     0.000000     0.000000
   17     1.000000    90.000000     0.000000     1.000000     0.000000    -0.500000     0.000000     0.000000
   18    -1.000000    90.000000     0.000000     1.000000     0.000000    -0.500000     0.000000     0.000000
   19     1.000000   180.000000     0.000000     0.000000     1.000000     0.000000     0.000000    -0.500000
   20    -1.000000   180.000000     0.000000     0.000000     1.000000     0.000000     0.000000    -0.500000
   21     1.000000   120.000000    -0.577350     0.577350     0.577350     0.000000     0.000000    -0.500000
   22    -1.000000   120.000000    -0.577350     0.577350     0.577350     0.000000     0.000000    -0.500000
   23     1.000000   120.000000    -0.577350     0.577350    -0.577350     0.000000     0.000000    -0.500000
   24    -1.000000   120.000000    -0.577350     0.577350    -0.577350     0.000000     0.000000    -0.500000
   25     1.000000    90.000000     0.000000     0.000000     1.000000     0.000000    -0.500000     0.000000
   26    -1.000000    90.000000     0.000000     0.000000     1.000000     0.000000    -0.500000     0.000000
   27     1.000000    90.000000    -1.000000     0.000000     0.000000     0.000000    -0.500000     0.000000
   28    -1.000000    90.000000    -1.000000     0.000000     0.000000     0.000000    -0.500000     0.000000
   29     1.000000   180.000000     0.707107     0.000000     0.707107     0.000000    -0.500000     0.000000
   30    -1.000000   180.000000     0.707107     0.000000     0.707107     0.000000    -0.500000     0.000000
   31     1.000000   120.000000     0.577350    -0.577350     0.577350    -0.500000     0.000000     0.000000
   32    -1.000000   120.000000     0.577350    -0.577350     0.577350    -0.500000     0.000000     0.000000
   33     1.000000   120.000000    -0.577350    -0.577350     0.577350    -0.500000     0.000000     0.000000
   34    -1.000000   120.000000    -0.577350    -0.577350     0.577350    -0.500000     0.000000     0.000000
   35     1.000000   180.000000     1.000000     0.000000     0.000000    -0.500000     0.000000     0.000000
   36    -1.000000   180.000000     1.000000     0.000000     0.000000    -0.500000     0.000000     0.000000
   37     1.000000    90.000000     0.000000    -1.000000     0.000000     0.000000     0.000000    -0.500000
   38    -1.000000    90.000000     0.000000    -1.000000     0.000000     0.000000     0.000000    -0.500000
   39     1.000000   180.000000     0.707107     0.707107     0.000000     0.000000     0.000000    -0.500000
   40    -1.000000   180.000000     0.707107     0.707107     0.000000     0.000000     0.000000    -0.500000
   41     1.000000    90.000000     1.000000     0.000000     0.000000     0.000000     0.000000    -0.500000
   42    -1.000000    90.000000     1.000000     0.000000     0.000000     0.000000     0.000000    -0.500000
   43     1.000000   120.000000     0.577350    -0.577350    -0.577350     0.000000    -0.500000     0.000000
   44    -1.000000   120.000000     0.577350    -0.577350    -0.577350     0.000000    -0.500000     0.000000
   45     1.000000   180.000000     0.000000     1.000000     0.000000     0.000000    -0.500000     0.000000
   46    -1.000000   180.000000     0.000000     1.000000     0.000000     0.000000    -0.500000     0.000000
   47     1.000000   120.000000     0.577350     0.577350    -0.577350     0.000000    -0.500000     0.000000
   48    -1.000000   120.000000     0.577350     0.577350    -0.577350     0.000000    -0.500000     0.000000
 TETIRR: Found   9051 inequivalent tetrahedra from   413526
 
 Subroutine IBZKPT returns following result:
 ===========================================
 
 Found   1771 irreducible k-points:
 
 Following reciprocal coordinates:
            Coordinates               Weight
  0.000000  0.000000  0.000000      1.000000
  0.024390  0.000000  0.000000      8.000000
  0.048780  0.000000  0.000000      8.000000
  0.073171  0.000000  0.000000      8.000000
  0.097561  0.000000  0.000000      8.000000
  0.121951  0.000000  0.000000      8.000000
  0.146341  0.000000  0.000000      8.000000
  0.170732  0.000000  0.000000      8.000000
  0.195122  0.000000  0.000000      8.000000
  0.219512  0.000000  0.000000      8.000000
  0.243902  0.000000  0.000000      8.000000
  0.268293  0.000000  0.000000      8.000000
  0.292683  0.000000  0.000000      8.000000
  0.317073  0.000000  0.000000      8.000000
  0.341463  0.000000  0.000000      8.000000
  0.365854  0.000000  0.000000      8.000000
  0.390244  0.000000  0.000000      8.000000
  0.414634  0.000000  0.000000      8.000000
  0.439024  0.000000  0.000000      8.000000
  0.463415  0.000000  0.000000      8.000000
  0.487805  0.000000  0.000000      8.000000
  0.024390  0.024390  0.000000      6.000000
  0.048780  0.024390  0.000000     24.000000
  0.073171  0.024390  0.000000     24.000000
  0.097561  0.024390  0.000000     24.000000
  0.121951  0.024390  0.000000     24.000000
  0.146341  0.024390  0.000000     24.000000
  0.170732  0.024390  0.000000     24.000000
  0.195122  0.024390  0.000000     24.000000
  0.219512  0.024390  0.000000     24.000000
  0.243902  0.024390  0.000000     24.000000
  0.268293  0.024390  0.000000     24.000000
  0.292683  0.024390  0.000000     24.000000
  0.317073  0.024390  0.000000     24.000000
  0.341463  0.024390  0.000000     24.000000
  0.365854  0.024390  0.000000     24.000000
  0.390244  0.024390  0.000000     24.000000
  0.414634  0.024390  0.000000     24.000000
  0.439024  0.024390  0.000000     24.000000
  0.463415  0.024390  0.000000     24.000000
  0.487805  0.024390  0.000000     24.000000
 -0.487805  0.024390  0.000000     24.000000
 -0.463415  0.024390  0.000000     24.000000
 -0.439024  0.024390  0.000000     24.000000
 -0.414634  0.024390  0.000000     24.000000
 -0.390244  0.024390  0.000000     24.000000
 -0.365854  0.024390  0.000000     24.000000
 -0.341463  0.024390  0.000000     24.000000
 -0.317073  0.024390  0.000000     24.000000
 -0.292683  0.024390  0.000000     24.000000
 -0.268293  0.024390  0.000000     24.000000
 -0.243902  0.024390  0.000000     24.000000
 -0.219512  0.024390  0.000000     24.000000
 -0.195122  0.024390  0.000000     24.000000
 -0.170732  0.024390  0.000000     24.000000
 -0.146341  0.024390  0.000000     24.000000
 -0.121951  0.024390  0.000000     24.000000
 -0.097561  0.024390  0.000000     24.000000
 -0.073171  0.024390  0.000000     24.000000
 -0.048780  0.024390  0.000000     24.000000
 -0.024390  0.024390  0.000000     12.000000
  0.048780  0.048780  0.000000      6.000000
  0.073171  0.048780  0.000000     24.000000
  0.097561  0.048780  0.000000     24.000000
  0.121951  0.048780  0.000000     24.000000
  0.146341  0.048780  0.000000     24.000000
  0.170732  0.048780  0.000000     24.000000
  0.195122  0.048780  0.000000     24.000000
  0.219512  0.048780  0.000000     24.000000
  0.243902  0.048780  0.000000     24.000000
  0.268293  0.048780  0.000000     24.000000
  0.292683  0.048780  0.000000     24.000000
  0.317073  0.048780  0.000000     24.000000
  0.341463  0.048780  0.000000     24.000000
  0.365854  0.048780  0.000000     24.000000
  0.390244  0.048780  0.000000     24.000000
  0.414634  0.048780  0.000000     24.000000
  0.439024  0.048780  0.000000     24.000000
  0.463415  0.048780  0.000000     24.000000
  0.487805  0.048780  0.000000     24.000000
 -0.487805  0.048780  0.000000     24.000000
 -0.463415  0.048780  0.000000     24.000000
 -0.439024  0.048780  0.000000     24.000000
 -0.414634  0.048780  0.000000     24.000000
 -0.390244  0.048780  0.000000     24.000000
 -0.365854  0.048780  0.000000     24.000000
 -0.341463  0.048780  0.000000     24.000000
 -0.317073  0.048780  0.000000     24.000000
 -0.292683  0.048780  0.000000     24.000000
 -0.268293  0.048780  0.000000     24.000000
 -0.243902  0.048780  0.000000     24.000000
 -0.219512  0.048780  0.000000     24.000000
 -0.195122  0.048780  0.000000     24.000000
 -0.170732  0.048780  0.000000     24.000000
 -0.146341  0.048780  0.000000     24.000000
 -0.121951  0.048780  0.000000     24.000000
 -0.097561  0.048780  0.000000     24.000000
 -0.073171  0.048780  0.000000     24.000000
 -0.048780  0.048780  0.000000     12.000000
  0.073171  0.073171  0.000000      6.000000
  0.097561  0.073171  0.000000     24.000000
  0.121951  0.073171  0.000000     24.000000
  0.146341  0.073171  0.000000     24.000000
  0.170732  0.073171  0.000000     24.000000
  0.195122  0.073171  0.000000     24.000000
  0.219512  0.073171  0.000000     24.000000
  0.243902  0.073171  0.000000     24.000000
  0.268293  0.073171  0.000000     24.000000
  0.292683  0.073171  0.000000     24.000000
  0.317073  0.073171  0.000000     24.000000
  0.341463  0.073171  0.000000     24.000000
  0.365854  0.073171  0.000000     24.000000
  0.390244  0.073171  0.000000     24.000000
  0.414634  0.073171  0.000000     24.000000
  0.439024  0.073171  0.000000     24.000000
  0.463415  0.073171  0.000000     24.000000
  0.487805  0.073171  0.000000     24.000000
 -0.487805  0.073171  0.000000     24.000000
 -0.463415  0.073171  0.000000     24.000000
 -0.439024  0.073171  0.000000     24.000000
 -0.414634  0.073171  0.000000     24.000000
 -0.390244  0.073171  0.000000     24.000000
 -0.365854  0.073171  0.000000     24.000000
 -0.341463  0.073171  0.000000     24.000000
 -0.317073  0.073171  0.000000     24.000000
 -0.292683  0.073171  0.000000     24.000000
 -0.268293  0.073171  0.000000     24.000000
 -0.243902  0.073171  0.000000     24.000000
 -0.219512  0.073171  0.000000     24.000000
 -0.195122  0.073171  0.000000     24.000000
 -0.170732  0.073171  0.000000     24.000000
 -0.146341  0.073171  0.000000     24.000000
 -0.121951  0.073171  0.000000     24.000000
 -0.097561  0.073171  0.000000     24.000000
 -0.073171  0.073171  0.000000     12.000000
  0.097561  0.097561  0.000000      6.000000
  0.121951  0.097561  0.000000     24.000000
  0.146341  0.097561  0.000000     24.000000
  0.170732  0.097561  0.000000     24.000000
  0.195122  0.097561  0.000000     24.000000
  0.219512  0.097561  0.000000     24.000000
  0.243902  0.097561  0.000000     24.000000
  0.268293  0.097561  0.000000     24.000000
  0.292683  0.097561  0.000000     24.000000
  0.317073  0.097561  0.000000     24.000000
  0.341463  0.097561  0.000000     24.000000
  0.365854  0.097561  0.000000     24.000000
  0.390244  0.097561  0.000000     24.000000
  0.414634  0.097561  0.000000     24.000000
  0.439024  0.097561  0.000000     24.000000
  0.463415  0.097561  0.000000     24.000000
  0.487805  0.097561  0.000000     24.000000
 -0.487805  0.097561  0.000000     24.000000
 -0.463415  0.097561  0.000000     24.000000
 -0.439024  0.097561  0.000000     24.000000
 -0.414634  0.097561  0.000000     24.000000
 -0.390244  0.097561  0.000000     24.000000
 -0.365854  0.097561  0.000000     24.000000
 -0.341463  0.097561  0.000000     24.000000
 -0.317073  0.097561  0.000000     24.000000
 -0.292683  0.097561  0.000000     24.000000
 -0.268293  0.097561  0.000000     24.000000
 -0.243902  0.097561  0.000000     24.000000
 -0.219512  0.097561  0.000000     24.000000
 -0.195122  0.097561  0.000000     24.000000
 -0.170732  0.097561  0.000000     24.000000
 -0.146341  0.097561  0.000000     24.000000
 -0.121951  0.097561  0.000000     24.000000
 -0.097561  0.097561  0.000000     12.000000
  0.121951  0.121951  0.000000      6.000000
  0.146341  0.121951  0.000000     24.000000
  0.170732  0.121951  0.000000     24.000000
  0.195122  0.121951  0.000000     24.000000
  0.219512  0.121951  0.000000     24.000000
  0.243902  0.121951  0.000000     24.000000
  0.268293  0.121951  0.000000     24.000000
  0.292683  0.121951  0.000000     24.000000
  0.317073  0.121951  0.000000     24.000000
  0.341463  0.121951  0.000000     24.000000
  0.365854  0.121951  0.000000     24.000000
  0.390244  0.121951  0.000000     24.000000
  0.414634  0.121951  0.000000     24.000000
  0.439024  0.121951  0.000000     24.000000
  0.463415  0.121951  0.000000     24.000000
  0.487805  0.121951  0.000000     24.000000
 -0.487805  0.121951  0.000000     24.000000
 -0.463415  0.121951  0.000000     24.000000
 -0.439024  0.121951  0.000000     24.000000
 -0.414634  0.121951  0.000000     24.000000
 -0.390244  0.121951  0.000000     24.000000
 -0.365854  0.121951  0.000000     24.000000
 -0.341463  0.121951  0.000000     24.000000
 -0.317073  0.121951  0.000000     24.000000
 -0.292683  0.121951  0.000000     24.000000
 -0.268293  0.121951  0.000000     24.000000
 -0.243902  0.121951  0.000000     24.000000
 -0.219512  0.121951  0.000000     24.000000
 -0.195122  0.121951  0.000000     24.000000
 -0.170732  0.121951  0.000000     24.000000
 -0.146341  0.121951  0.000000     24.000000
 -0.121951  0.121951  0.000000     12.000000
  0.146341  0.146341  0.000000      6.000000
  0.170732  0.146341  0.000000     24.000000
  0.195122  0.146341  0.000000     24.000000
  0.219512  0.146341  0.000000     24.000000
  0.243902  0.146341  0.000000     24.000000
  0.268293  0.146341  0.000000     24.000000
  0.292683  0.146341  0.000000     24.000000
  0.317073  0.146341  0.000000     24.000000
  0.341463  0.146341  0.000000     24.000000
  0.365854  0.146341  0.000000     24.000000
  0.390244  0.146341  0.000000     24.000000
  0.414634  0.146341  0.000000     24.000000
  0.439024  0.146341  0.000000     24.000000
  0.463415  0.146341  0.000000     24.000000
  0.487805  0.146341  0.000000     24.000000
 -0.487805  0.146341  0.000000     24.000000
 -0.463415  0.146341  0.000000     24.000000
 -0.439024  0.146341  0.000000     24.000000
 -0.414634  0.146341  0.000000     24.000000
 -0.390244  0.146341  0.000000     24.000000
 -0.365854  0.146341  0.000000     24.000000
 -0.341463  0.146341  0.000000     24.000000
 -0.317073  0.146341  0.000000     24.000000
 -0.292683  0.146341  0.000000     24.000000
 -0.268293  0.146341  0.000000     24.000000
 -0.243902  0.146341  0.000000     24.000000
 -0.219512  0.146341  0.000000     24.000000
 -0.195122  0.146341  0.000000     24.000000
 -0.170732  0.146341  0.000000     24.000000
 -0.146341  0.146341  0.000000     12.000000
  0.170732  0.170732  0.000000      6.000000
  0.195122  0.170732  0.000000     24.000000
  0.219512  0.170732  0.000000     24.000000
  0.243902  0.170732  0.000000     24.000000
  0.268293  0.170732  0.000000     24.000000
  0.292683  0.170732  0.000000     24.000000
  0.317073  0.170732  0.000000     24.000000
  0.341463  0.170732  0.000000     24.000000
  0.365854  0.170732  0.000000     24.000000
  0.390244  0.170732  0.000000     24.000000
  0.414634  0.170732  0.000000     24.000000
  0.439024  0.170732  0.000000     24.000000
  0.463415  0.170732  0.000000     24.000000
  0.487805  0.170732  0.000000     24.000000
 -0.487805  0.170732  0.000000     24.000000
 -0.463415  0.170732  0.000000     24.000000
 -0.439024  0.170732  0.000000     24.000000
 -0.414634  0.170732  0.000000     24.000000
 -0.390244  0.170732  0.000000     24.000000
 -0.365854  0.170732  0.000000     24.000000
 -0.341463  0.170732  0.000000     24.000000
 -0.317073  0.170732  0.000000     24.000000
 -0.292683  0.170732  0.000000     24.000000
 -0.268293  0.170732  0.000000     24.000000
 -0.243902  0.170732  0.000000     24.000000
 -0.219512  0.170732  0.000000     24.000000
 -0.195122  0.170732  0.000000     24.000000
 -0.170732  0.170732  0.000000     12.000000
  0.195122  0.195122  0.000000      6.000000
  0.219512  0.195122  0.000000     24.000000
  0.243902  0.195122  0.000000     24.000000
  0.268293  0.195122  0.000000     24.000000
  0.292683  0.195122  0.000000     24.000000
  0.317073  0.195122  0.000000     24.000000
  0.341463  0.195122  0.000000     24.000000
  0.365854  0.195122  0.000000     24.000000
  0.390244  0.195122  0.000000     24.000000
  0.414634  0.195122  0.000000     24.000000
  0.439024  0.195122  0.000000     24.000000
  0.463415  0.195122  0.000000     24.000000
  0.487805  0.195122  0.000000     24.000000
 -0.487805  0.195122  0.000000     24.000000
 -0.463415  0.195122  0.000000     24.000000
 -0.439024  0.195122  0.000000     24.000000
 -0.414634  0.195122  0.000000     24.000000
 -0.390244  0.195122  0.000000     24.000000
 -0.365854  0.195122  0.000000     24.000000
 -0.341463  0.195122  0.000000     24.000000
 -0.317073  0.195122  0.000000     24.000000
 -0.292683  0.195122  0.000000     24.000000
 -0.268293  0.195122  0.000000     24.000000
 -0.243902  0.195122  0.000000     24.000000
 -0.219512  0.195122  0.000000     24.000000
 -0.195122  0.195122  0.000000     12.000000
  0.219512  0.219512  0.000000      6.000000
  0.243902  0.219512  0.000000     24.000000
  0.268293  0.219512  0.000000     24.000000
  0.292683  0.219512  0.000000     24.000000
  0.317073  0.219512  0.000000     24.000000
  0.341463  0.219512  0.000000     24.000000
  0.365854  0.219512  0.000000     24.000000
  0.390244  0.219512  0.000000     24.000000
  0.414634  0.219512  0.000000     24.000000
  0.439024  0.219512  0.000000     24.000000
  0.463415  0.219512  0.000000     24.000000
  0.487805  0.219512  0.000000     24.000000
 -0.487805  0.219512  0.000000     24.000000
 -0.463415  0.219512  0.000000     24.000000
 -0.439024  0.219512  0.000000     24.000000
 -0.414634  0.219512  0.000000     24.000000
 -0.390244  0.219512  0.000000     24.000000
 -0.365854  0.219512  0.000000     24.000000
 -0.341463  0.219512  0.000000     24.000000
 -0.317073  0.219512  0.000000     24.000000
 -0.292683  0.219512  0.000000     24.000000
 -0.268293  0.219512  0.000000     24.000000
 -0.243902  0.219512  0.000000     24.000000
 -0.219512  0.219512  0.000000     12.000000
  0.243902  0.243902  0.000000      6.000000
  0.268293  0.243902  0.000000     24.000000
  0.292683  0.243902  0.000000     24.000000
  0.317073  0.243902  0.000000     24.000000
  0.341463  0.243902  0.000000     24.000000
  0.365854  0.243902  0.000000     24.000000
  0.390244  0.243902  0.000000     24.000000
  0.414634  0.243902  0.000000     24.000000
  0.439024  0.243902  0.000000     24.000000
  0.463415  0.243902  0.000000     24.000000
  0.487805  0.243902  0.000000     24.000000
 -0.487805  0.243902  0.000000     24.000000
 -0.463415  0.243902  0.000000     24.000000
 -0.439024  0.243902  0.000000     24.000000
 -0.414634  0.243902  0.000000     24.000000
 -0.390244  0.243902  0.000000     24.000000
 -0.365854  0.243902  0.000000     24.000000
 -0.341463  0.243902  0.000000     24.000000
 -0.317073  0.243902  0.000000     24.000000
 -0.292683  0.243902  0.000000     24.000000
 -0.268293  0.243902  0.000000     24.000000
 -0.243902  0.243902  0.000000     12.000000
  0.268293  0.268293  0.000000      6.000000
  0.292683  0.268293  0.000000     24.000000
  0.317073  0.268293  0.000000     24.000000
  0.341463  0.268293  0.000000     24.000000
  0.365854  0.268293  0.000000     24.000000
  0.390244  0.268293  0.000000     24.000000
  0.414634  0.268293  0.000000     24.000000
  0.439024  0.268293  0.000000     24.000000
  0.463415  0.268293  0.000000     24.000000
  0.487805  0.268293  0.000000     24.000000
 -0.487805  0.268293  0.000000     24.000000
 -0.463415  0.268293  0.000000     24.000000
 -0.439024  0.268293  0.000000     24.000000
 -0.414634  0.268293  0.000000     24.000000
 -0.390244  0.268293  0.000000     24.000000
 -0.365854  0.268293  0.000000     24.000000
 -0.341463  0.268293  0.000000     24.000000
 -0.317073  0.268293  0.000000     24.000000
 -0.292683  0.268293  0.000000     24.000000
 -0.268293  0.268293  0.000000     12.000000
  0.292683  0.292683  0.000000      6.000000
  0.317073  0.292683  0.000000     24.000000
  0.341463  0.292683  0.000000     24.000000
  0.365854  0.292683  0.000000     24.000000
  0.390244  0.292683  0.000000     24.000000
  0.414634  0.292683  0.000000     24.000000
  0.439024  0.292683  0.000000     24.000000
  0.463415  0.292683  0.000000     24.000000
  0.487805  0.292683  0.000000     24.000000
 -0.487805  0.292683  0.000000     24.000000
 -0.463415  0.292683  0.000000     24.000000
 -0.439024  0.292683  0.000000     24.000000
 -0.414634  0.292683  0.000000     24.000000
 -0.390244  0.292683  0.000000     24.000000
 -0.365854  0.292683  0.000000     24.000000
 -0.341463  0.292683  0.000000     24.000000
 -0.317073  0.292683  0.000000     24.000000
 -0.292683  0.292683  0.000000     12.000000
  0.317073  0.317073  0.000000      6.000000
  0.341463  0.317073  0.000000     24.000000
  0.365854  0.317073  0.000000     24.000000
  0.390244  0.317073  0.000000     24.000000
  0.414634  0.317073  0.000000     24.000000
  0.439024  0.317073  0.000000     24.000000
  0.463415  0.317073  0.000000     24.000000
  0.487805  0.317073  0.000000     24.000000
 -0.487805  0.317073  0.000000     24.000000
 -0.463415  0.317073  0.000000     24.000000
 -0.439024  0.317073  0.000000     24.000000
 -0.414634  0.317073  0.000000     24.000000
 -0.390244  0.317073  0.000000     24.000000
 -0.365854  0.317073  0.000000     24.000000
 -0.341463  0.317073  0.000000     24.000000
 -0.317073  0.317073  0.000000     12.000000
  0.341463  0.341463  0.000000      6.000000
  0.365854  0.341463  0.000000     24.000000
  0.390244  0.341463  0.000000     24.000000
  0.414634  0.341463  0.000000     24.000000
  0.439024  0.341463  0.000000     24.000000
  0.463415  0.341463  0.000000     24.000000
  0.487805  0.341463  0.000000     24.000000
 -0.487805  0.341463  0.000000     24.000000
 -0.463415  0.341463  0.000000     24.000000
 -0.439024  0.341463  0.000000     24.000000
 -0.414634  0.341463  0.000000     24.000000
 -0.390244  0.341463  0.000000     24.000000
 -0.365854  0.341463  0.000000     24.000000
 -0.341463  0.341463  0.000000     12.000000
  0.365854  0.365854  0.000000      6.000000
  0.390244  0.365854  0.000000     24.000000
  0.414634  0.365854  0.000000     24.000000
  0.439024  0.365854  0.000000     24.000000
  0.463415  0.365854  0.000000     24.000000
  0.487805  0.365854  0.000000     24.000000
 -0.487805  0.365854  0.000000     24.000000
 -0.463415  0.365854  0.000000     24.000000
 -0.439024  0.365854  0.000000     24.000000
 -0.414634  0.365854  0.000000     24.000000
 -0.390244  0.365854  0.000000     24.000000
 -0.365854  0.365854  0.000000     12.000000
  0.390244  0.390244  0.000000      6.000000
  0.414634  0.390244  0.000000     24.000000
  0.439024  0.390244  0.000000     24.000000
  0.463415  0.390244  0.000000     24.000000
  0.487805  0.390244  0.000000     24.000000
 -0.487805  0.390244  0.000000     24.000000
 -0.463415  0.390244  0.000000     24.000000
 -0.439024  0.390244  0.000000     24.000000
 -0.414634  0.390244  0.000000     24.000000
 -0.390244  0.390244  0.000000     12.000000
  0.414634  0.414634  0.000000      6.000000
  0.439024  0.414634  0.000000     24.000000
  0.463415  0.414634  0.000000     24.000000
  0.487805  0.414634  0.000000     24.000000
 -0.487805  0.414634  0.000000     24.000000
 -0.463415  0.414634  0.000000     24.000000
 -0.439024  0.414634  0.000000     24.000000
 -0.414634  0.414634  0.000000     12.000000
  0.439024  0.439024  0.000000      6.000000
  0.463415  0.439024  0.000000     24.000000
  0.487805  0.439024  0.000000     24.000000
 -0.487805  0.439024  0.000000     24.000000
 -0.463415  0.439024  0.000000     24.000000
 -0.439024  0.439024  0.000000     12.000000
  0.463415  0.463415  0.000000      6.000000
  0.487805  0.463415  0.000000     24.000000
 -0.487805  0.463415  0.000000     24.000000
 -0.463415  0.463415  0.000000     12.000000
  0.487805  0.487805  0.000000      6.000000
 -0.487805  0.487805  0.000000     12.000000
  0.073171  0.048780  0.024390     24.000000
  0.097561  0.048780  0.024390     48.000000
  0.121951  0.048780  0.024390     48.000000
  0.146341  0.048780  0.024390     48.000000
  0.170732  0.048780  0.024390     48.000000
  0.195122  0.048780  0.024390     48.000000
  0.219512  0.048780  0.024390     48.000000
  0.243902  0.048780  0.024390     48.000000
  0.268293  0.048780  0.024390     48.000000
  0.292683  0.048780  0.024390     48.000000
  0.317073  0.048780  0.024390     48.000000
  0.341463  0.048780  0.024390     48.000000
  0.365854  0.048780  0.024390     48.000000
  0.390244  0.048780  0.024390     48.000000
  0.414634  0.048780  0.024390     48.000000
  0.439024  0.048780  0.024390     48.000000
  0.463415  0.048780  0.024390     48.000000
  0.487805  0.048780  0.024390     48.000000
 -0.487805  0.048780  0.024390     48.000000
  0.097561  0.073171  0.024390     24.000000
  0.121951  0.073171  0.024390     48.000000
  0.146341  0.073171  0.024390     48.000000
  0.170732  0.073171  0.024390     48.000000
  0.195122  0.073171  0.024390     48.000000
  0.219512  0.073171  0.024390     48.000000
  0.243902  0.073171  0.024390     48.000000
  0.268293  0.073171  0.024390     48.000000
  0.292683  0.073171  0.024390     48.000000
  0.317073  0.073171  0.024390     48.000000
  0.341463  0.073171  0.024390     48.000000
  0.365854  0.073171  0.024390     48.000000
  0.390244  0.073171  0.024390     48.000000
  0.414634  0.073171  0.024390     48.000000
  0.439024  0.073171  0.024390     48.000000
  0.463415  0.073171  0.024390     48.000000
  0.487805  0.073171  0.024390     48.000000
 -0.487805  0.073171  0.024390     48.000000
 -0.463415  0.073171  0.024390     48.000000
 -0.439024  0.073171  0.024390     48.000000
 -0.414634  0.073171  0.024390     48.000000
 -0.390244  0.073171  0.024390     48.000000
 -0.365854  0.073171  0.024390     48.000000
 -0.341463  0.073171  0.024390     48.000000
 -0.317073  0.073171  0.024390     48.000000
 -0.292683  0.073171  0.024390     48.000000
 -0.268293  0.073171  0.024390     48.000000
 -0.243902  0.073171  0.024390     48.000000
 -0.219512  0.073171  0.024390     48.000000
 -0.195122  0.073171  0.024390     48.000000
 -0.170732  0.073171  0.024390     48.000000
 -0.146341  0.073171  0.024390     48.000000
 -0.121951  0.073171  0.024390     48.000000
 -0.097561  0.073171  0.024390     48.000000
 -0.073171  0.073171  0.024390     48.000000
 -0.048780  0.073171  0.024390     24.000000
  0.121951  0.097561  0.024390     24.000000
  0.146341  0.097561  0.024390     48.000000
  0.170732  0.097561  0.024390     48.000000
  0.195122  0.097561  0.024390     48.000000
  0.219512  0.097561  0.024390     48.000000
  0.243902  0.097561  0.024390     48.000000
  0.268293  0.097561  0.024390     48.000000
  0.292683  0.097561  0.024390     48.000000
  0.317073  0.097561  0.024390     48.000000
  0.341463  0.097561  0.024390     48.000000
  0.365854  0.097561  0.024390     48.000000
  0.390244  0.097561  0.024390     48.000000
  0.414634  0.097561  0.024390     48.000000
  0.439024  0.097561  0.024390     48.000000
  0.463415  0.097561  0.024390     48.000000
  0.487805  0.097561  0.024390     48.000000
 -0.487805  0.097561  0.024390     48.000000
 -0.463415  0.097561  0.024390     48.000000
 -0.439024  0.097561  0.024390     48.000000
 -0.414634  0.097561  0.024390     48.000000
 -0.390244  0.097561  0.024390     48.000000
 -0.365854  0.097561  0.024390     48.000000
 -0.341463  0.097561  0.024390     48.000000
 -0.317073  0.097561  0.024390     48.000000
 -0.292683  0.097561  0.024390     48.000000
 -0.268293  0.097561  0.024390     48.000000
 -0.243902  0.097561  0.024390     48.000000
 -0.219512  0.097561  0.024390     48.000000
 -0.195122  0.097561  0.024390     48.000000
 -0.170732  0.097561  0.024390     48.000000
 -0.146341  0.097561  0.024390     48.000000
 -0.121951  0.097561  0.024390     48.000000
 -0.097561  0.097561  0.024390     48.000000
 -0.073171  0.097561  0.024390     24.000000
  0.146341  0.121951  0.024390     24.000000
  0.170732  0.121951  0.024390     48.000000
  0.195122  0.121951  0.024390     48.000000
  0.219512  0.121951  0.024390     48.000000
  0.243902  0.121951  0.024390     48.000000
  0.268293  0.121951  0.024390     48.000000
  0.292683  0.121951  0.024390     48.000000
  0.317073  0.121951  0.024390     48.000000
  0.341463  0.121951  0.024390     48.000000
  0.365854  0.121951  0.024390     48.000000
  0.390244  0.121951  0.024390     48.000000
  0.414634  0.121951  0.024390     48.000000
  0.439024  0.121951  0.024390     48.000000
  0.463415  0.121951  0.024390     48.000000
  0.487805  0.121951  0.024390     48.000000
 -0.487805  0.121951  0.024390     48.000000
 -0.463415  0.121951  0.024390     48.000000
 -0.439024  0.121951  0.024390     48.000000
 -0.414634  0.121951  0.024390     48.000000
 -0.390244  0.121951  0.024390     48.000000
 -0.365854  0.121951  0.024390     48.000000
 -0.341463  0.121951  0.024390     48.000000
 -0.317073  0.121951  0.024390     48.000000
 -0.292683  0.121951  0.024390     48.000000
 -0.268293  0.121951  0.024390     48.000000
 -0.243902  0.121951  0.024390     48.000000
 -0.219512  0.121951  0.024390     48.000000
 -0.195122  0.121951  0.024390     48.000000
 -0.170732  0.121951  0.024390     48.000000
 -0.146341  0.121951  0.024390     48.000000
 -0.121951  0.121951  0.024390     48.000000
 -0.097561  0.121951  0.024390     24.000000
  0.170732  0.146341  0.024390     24.000000
  0.195122  0.146341  0.024390     48.000000
  0.219512  0.146341  0.024390     48.000000
  0.243902  0.146341  0.024390     48.000000
  0.268293  0.146341  0.024390     48.000000
  0.292683  0.146341  0.024390     48.000000
  0.317073  0.146341  0.024390     48.000000
  0.341463  0.146341  0.024390     48.000000
  0.365854  0.146341  0.024390     48.000000
  0.390244  0.146341  0.024390     48.000000
  0.414634  0.146341  0.024390     48.000000
  0.439024  0.146341  0.024390     48.000000
  0.463415  0.146341  0.024390     48.000000
  0.487805  0.146341  0.024390     48.000000
 -0.487805  0.146341  0.024390     48.000000
 -0.463415  0.146341  0.024390     48.000000
 -0.439024  0.146341  0.024390     48.000000
 -0.414634  0.146341  0.024390     48.000000
 -0.390244  0.146341  0.024390     48.000000
 -0.365854  0.146341  0.024390     48.000000
 -0.341463  0.146341  0.024390     48.000000
 -0.317073  0.146341  0.024390     48.000000
 -0.292683  0.146341  0.024390     48.000000
 -0.268293  0.146341  0.024390     48.000000
 -0.243902  0.146341  0.024390     48.000000
 -0.219512  0.146341  0.024390     48.000000
 -0.195122  0.146341  0.024390     48.000000
 -0.170732  0.146341  0.024390     48.000000
 -0.146341  0.146341  0.024390     48.000000
 -0.121951  0.146341  0.024390     24.000000
  0.195122  0.170732  0.024390     24.000000
  0.219512  0.170732  0.024390     48.000000
  0.243902  0.170732  0.024390     48.000000
  0.268293  0.170732  0.024390     48.000000
  0.292683  0.170732  0.024390     48.000000
  0.317073  0.170732  0.024390     48.000000
  0.341463  0.170732  0.024390     48.000000
  0.365854  0.170732  0.024390     48.000000
  0.390244  0.170732  0.024390     48.000000
  0.414634  0.170732  0.024390     48.000000
  0.439024  0.170732  0.024390     48.000000
  0.463415  0.170732  0.024390     48.000000
  0.487805  0.170732  0.024390     48.000000
 -0.487805  0.170732  0.024390     48.000000
 -0.463415  0.170732  0.024390     48.000000
 -0.439024  0.170732  0.024390     48.000000
 -0.414634  0.170732  0.024390     48.000000
 -0.390244  0.170732  0.024390     48.000000
 -0.365854  0.170732  0.024390     48.000000
 -0.341463  0.170732  0.024390     48.000000
 -0.317073  0.170732  0.024390     48.000000
 -0.292683  0.170732  0.024390     48.000000
 -0.268293  0.170732  0.024390     48.000000
 -0.243902  0.170732  0.024390     48.000000
 -0.219512  0.170732  0.024390     48.000000
 -0.195122  0.170732  0.024390     48.000000
 -0.170732  0.170732  0.024390     48.000000
 -0.146341  0.170732  0.024390     24.000000
  0.219512  0.195122  0.024390     24.000000
  0.243902  0.195122  0.024390     48.000000
  0.268293  0.195122  0.024390     48.000000
  0.292683  0.195122  0.024390     48.000000
  0.317073  0.195122  0.024390     48.000000
  0.341463  0.195122  0.024390     48.000000
  0.365854  0.195122  0.024390     48.000000
  0.390244  0.195122  0.024390     48.000000
  0.414634  0.195122  0.024390     48.000000
  0.439024  0.195122  0.024390     48.000000
  0.463415  0.195122  0.024390     48.000000
  0.487805  0.195122  0.024390     48.000000
 -0.487805  0.195122  0.024390     48.000000
 -0.463415  0.195122  0.024390     48.000000
 -0.439024  0.195122  0.024390     48.000000
 -0.414634  0.195122  0.024390     48.000000
 -0.390244  0.195122  0.024390     48.000000
 -0.365854  0.195122  0.024390     48.000000
 -0.341463  0.195122  0.024390     48.000000
 -0.317073  0.195122  0.024390     48.000000
 -0.292683  0.195122  0.024390     48.000000
 -0.268293  0.195122  0.024390     48.000000
 -0.243902  0.195122  0.024390     48.000000
 -0.219512  0.195122  0.024390     48.000000
 -0.195122  0.195122  0.024390     48.000000
 -0.170732  0.195122  0.024390     24.000000
  0.243902  0.219512  0.024390     24.000000
  0.268293  0.219512  0.024390     48.000000
  0.292683  0.219512  0.024390     48.000000
  0.317073  0.219512  0.024390     48.000000
  0.341463  0.219512  0.024390     48.000000
  0.365854  0.219512  0.024390     48.000000
  0.390244  0.219512  0.024390     48.000000
  0.414634  0.219512  0.024390     48.000000
  0.439024  0.219512  0.024390     48.000000
  0.463415  0.219512  0.024390     48.000000
  0.487805  0.219512  0.024390     48.000000
 -0.487805  0.219512  0.024390     48.000000
 -0.463415  0.219512  0.024390     48.000000
 -0.439024  0.219512  0.024390     48.000000
 -0.414634  0.219512  0.024390     48.000000
 -0.390244  0.219512  0.024390     48.000000
 -0.365854  0.219512  0.024390     48.000000
 -0.341463  0.219512  0.024390     48.000000
 -0.317073  0.219512  0.024390     48.000000
 -0.292683  0.219512  0.024390     48.000000
 -0.268293  0.219512  0.024390     48.000000
 -0.243902  0.219512  0.024390     48.000000
 -0.219512  0.219512  0.024390     48.000000
 -0.195122  0.219512  0.024390     24.000000
  0.268293  0.243902  0.024390     24.000000
  0.292683  0.243902  0.024390     48.000000
  0.317073  0.243902  0.024390     48.000000
  0.341463  0.243902  0.024390     48.000000
  0.365854  0.243902  0.024390     48.000000
  0.390244  0.243902  0.024390     48.000000
  0.414634  0.243902  0.024390     48.000000
  0.439024  0.243902  0.024390     48.000000
  0.463415  0.243902  0.024390     48.000000
  0.487805  0.243902  0.024390     48.000000
 -0.487805  0.243902  0.024390     48.000000
 -0.463415  0.243902  0.024390     48.000000
 -0.439024  0.243902  0.024390     48.000000
 -0.414634  0.243902  0.024390     48.000000
 -0.390244  0.243902  0.024390     48.000000
 -0.365854  0.243902  0.024390     48.000000
 -0.341463  0.243902  0.024390     48.000000
 -0.317073  0.243902  0.024390     48.000000
 -0.292683  0.243902  0.024390     48.000000
 -0.268293  0.243902  0.024390     48.000000
 -0.243902  0.243902  0.024390     48.000000
 -0.219512  0.243902  0.024390     24.000000
  0.292683  0.268293  0.024390     24.000000
  0.317073  0.268293  0.024390     48.000000
  0.341463  0.268293  0.024390     48.000000
  0.365854  0.268293  0.024390     48.000000
  0.390244  0.268293  0.024390     48.000000
  0.414634  0.268293  0.024390     48.000000
  0.439024  0.268293  0.024390     48.000000
  0.463415  0.268293  0.024390     48.000000
  0.487805  0.268293  0.024390     48.000000
 -0.487805  0.268293  0.024390     48.000000
 -0.463415  0.268293  0.024390     48.000000
 -0.439024  0.268293  0.024390     48.000000
 -0.414634  0.268293  0.024390     48.000000
 -0.390244  0.268293  0.024390     48.000000
 -0.365854  0.268293  0.024390     48.000000
 -0.341463  0.268293  0.024390     48.000000
 -0.317073  0.268293  0.024390     48.000000
 -0.292683  0.268293  0.024390     48.000000
 -0.268293  0.268293  0.024390     48.000000
 -0.243902  0.268293  0.024390     24.000000
  0.317073  0.292683  0.024390     24.000000
  0.341463  0.292683  0.024390     48.000000
  0.365854  0.292683  0.024390     48.000000
  0.390244  0.292683  0.024390     48.000000
  0.414634  0.292683  0.024390     48.000000
  0.439024  0.292683  0.024390     48.000000
  0.463415  0.292683  0.024390     48.000000
  0.487805  0.292683  0.024390     48.000000
 -0.487805  0.292683  0.024390     48.000000
 -0.463415  0.292683  0.024390     48.000000
 -0.439024  0.292683  0.024390     48.000000
 -0.414634  0.292683  0.024390     48.000000
 -0.390244  0.292683  0.024390     48.000000
 -0.365854  0.292683  0.024390     48.000000
 -0.341463  0.292683  0.024390     48.000000
 -0.317073  0.292683  0.024390     48.000000
 -0.292683  0.292683  0.024390     48.000000
 -0.268293  0.292683  0.024390     24.000000
  0.341463  0.317073  0.024390     24.000000
  0.365854  0.317073  0.024390     48.000000
  0.390244  0.317073  0.024390     48.000000
  0.414634  0.317073  0.024390     48.000000
  0.439024  0.317073  0.024390     48.000000
  0.463415  0.317073  0.024390     48.000000
  0.487805  0.317073  0.024390     48.000000
 -0.487805  0.317073  0.024390     48.000000
 -0.463415  0.317073  0.024390     48.000000
 -0.439024  0.317073  0.024390     48.000000
 -0.414634  0.317073  0.024390     48.000000
 -0.390244  0.317073  0.024390     48.000000
 -0.365854  0.317073  0.024390     48.000000
 -0.341463  0.317073  0.024390     48.000000
 -0.317073  0.317073  0.024390     48.000000
 -0.292683  0.317073  0.024390     24.000000
  0.365854  0.341463  0.024390     24.000000
  0.390244  0.341463  0.024390     48.000000
  0.414634  0.341463  0.024390     48.000000
  0.439024  0.341463  0.024390     48.000000
  0.463415  0.341463  0.024390     48.000000
  0.487805  0.341463  0.024390     48.000000
 -0.487805  0.341463  0.024390     48.000000
 -0.463415  0.341463  0.024390     48.000000
 -0.439024  0.341463  0.024390     48.000000
 -0.414634  0.341463  0.024390     48.000000
 -0.390244  0.341463  0.024390     48.000000
 -0.365854  0.341463  0.024390     48.000000
 -0.341463  0.341463  0.024390     48.000000
 -0.317073  0.341463  0.024390     24.000000
  0.390244  0.365854  0.024390     24.000000
  0.414634  0.365854  0.024390     48.000000
  0.439024  0.365854  0.024390     48.000000
  0.463415  0.365854  0.024390     48.000000
  0.487805  0.365854  0.024390     48.000000
 -0.487805  0.365854  0.024390     48.000000
 -0.463415  0.365854  0.024390     48.000000
 -0.439024  0.365854  0.024390     48.000000
 -0.414634  0.365854  0.024390     48.000000
 -0.390244  0.365854  0.024390     48.000000
 -0.365854  0.365854  0.024390     48.000000
 -0.341463  0.365854  0.024390     24.000000
  0.414634  0.390244  0.024390     24.000000
  0.439024  0.390244  0.024390     48.000000
  0.463415  0.390244  0.024390     48.000000
  0.487805  0.390244  0.024390     48.000000
 -0.487805  0.390244  0.024390     48.000000
 -0.463415  0.390244  0.024390     48.000000
 -0.439024  0.390244  0.024390     48.000000
 -0.414634  0.390244  0.024390     48.000000
 -0.390244  0.390244  0.024390     48.000000
 -0.365854  0.390244  0.024390     24.000000
  0.439024  0.414634  0.024390     24.000000
  0.463415  0.414634  0.024390     48.000000
  0.487805  0.414634  0.024390     48.000000
 -0.487805  0.414634  0.024390     48.000000
 -0.463415  0.414634  0.024390     48.000000
 -0.439024  0.414634  0.024390     48.000000
 -0.414634  0.414634  0.024390     48.000000
 -0.390244  0.414634  0.024390     24.000000
  0.463415  0.439024  0.024390     24.000000
  0.487805  0.439024  0.024390     48.000000
 -0.487805  0.439024  0.024390     48.000000
 -0.463415  0.439024  0.024390     48.000000
 -0.439024  0.439024  0.024390     48.000000
 -0.414634  0.439024  0.024390     24.000000
  0.487805  0.463415  0.024390     24.000000
 -0.487805  0.463415  0.024390     48.000000
 -0.463415  0.463415  0.024390     48.000000
 -0.439024  0.463415  0.024390     24.000000
 -0.487805  0.487805  0.024390     24.000000
 -0.463415  0.487805  0.024390     24.000000
  0.146341  0.097561  0.048780     24.000000
  0.170732  0.097561  0.048780     48.000000
  0.195122  0.097561  0.048780     48.000000
  0.219512  0.097561  0.048780     48.000000
  0.243902  0.097561  0.048780     48.000000
  0.268293  0.097561  0.048780     48.000000
  0.292683  0.097561  0.048780     48.000000
  0.317073  0.097561  0.048780     48.000000
  0.341463  0.097561  0.048780     48.000000
  0.365854  0.097561  0.048780     48.000000
  0.390244  0.097561  0.048780     48.000000
  0.414634  0.097561  0.048780     48.000000
  0.439024  0.097561  0.048780     48.000000
  0.463415  0.097561  0.048780     48.000000
  0.487805  0.097561  0.048780     48.000000
 -0.487805  0.097561  0.048780     48.000000
 -0.463415  0.097561  0.048780     48.000000
  0.170732  0.121951  0.048780     24.000000
  0.195122  0.121951  0.048780     48.000000
  0.219512  0.121951  0.048780     48.000000
  0.243902  0.121951  0.048780     48.000000
  0.268293  0.121951  0.048780     48.000000
  0.292683  0.121951  0.048780     48.000000
  0.317073  0.121951  0.048780     48.000000
  0.341463  0.121951  0.048780     48.000000
  0.365854  0.121951  0.048780     48.000000
  0.390244  0.121951  0.048780     48.000000
  0.414634  0.121951  0.048780     48.000000
  0.439024  0.121951  0.048780     48.000000
  0.463415  0.121951  0.048780     48.000000
  0.487805  0.121951  0.048780     48.000000
 -0.487805  0.121951  0.048780     48.000000
 -0.463415  0.121951  0.048780     48.000000
 -0.439024  0.121951  0.048780     48.000000
 -0.414634  0.121951  0.048780     48.000000
 -0.390244  0.121951  0.048780     48.000000
 -0.365854  0.121951  0.048780     48.000000
 -0.341463  0.121951  0.048780     48.000000
 -0.317073  0.121951  0.048780     48.000000
 -0.292683  0.121951  0.048780     48.000000
 -0.268293  0.121951  0.048780     48.000000
 -0.243902  0.121951  0.048780     48.000000
 -0.219512  0.121951  0.048780     48.000000
 -0.195122  0.121951  0.048780     48.000000
 -0.170732  0.121951  0.048780     48.000000
 -0.146341  0.121951  0.048780     48.000000
 -0.121951  0.121951  0.048780     48.000000
 -0.097561  0.121951  0.048780     48.000000
 -0.073171  0.121951  0.048780     24.000000
  0.195122  0.146341  0.048780     24.000000
  0.219512  0.146341  0.048780     48.000000
  0.243902  0.146341  0.048780     48.000000
  0.268293  0.146341  0.048780     48.000000
  0.292683  0.146341  0.048780     48.000000
  0.317073  0.146341  0.048780     48.000000
  0.341463  0.146341  0.048780     48.000000
  0.365854  0.146341  0.048780     48.000000
  0.390244  0.146341  0.048780     48.000000
  0.414634  0.146341  0.048780     48.000000
  0.439024  0.146341  0.048780     48.000000
  0.463415  0.146341  0.048780     48.000000
  0.487805  0.146341  0.048780     48.000000
 -0.487805  0.146341  0.048780     48.000000
 -0.463415  0.146341  0.048780     48.000000
 -0.439024  0.146341  0.048780     48.000000
 -0.414634  0.146341  0.048780     48.000000
 -0.390244  0.146341  0.048780     48.000000
 -0.365854  0.146341  0.048780     48.000000
 -0.341463  0.146341  0.048780     48.000000
 -0.317073  0.146341  0.048780     48.000000
 -0.292683  0.146341  0.048780     48.000000
 -0.268293  0.146341  0.048780     48.000000
 -0.243902  0.146341  0.048780     48.000000
 -0.219512  0.146341  0.048780     48.000000
 -0.195122  0.146341  0.048780     48.000000
 -0.170732  0.146341  0.048780     48.000000
 -0.146341  0.146341  0.048780     48.000000
 -0.121951  0.146341  0.048780     48.000000
 -0.097561  0.146341  0.048780     24.000000
  0.219512  0.170732  0.048780     24.000000
  0.243902  0.170732  0.048780     48.000000
  0.268293  0.170732  0.048780     48.000000
  0.292683  0.170732  0.048780     48.000000
  0.317073  0.170732  0.048780     48.000000
  0.341463  0.170732  0.048780     48.000000
  0.365854  0.170732  0.048780     48.000000
  0.390244  0.170732  0.048780     48.000000
  0.414634  0.170732  0.048780     48.000000
  0.439024  0.170732  0.048780     48.000000
  0.463415  0.170732  0.048780     48.000000
  0.487805  0.170732  0.048780     48.000000
 -0.487805  0.170732  0.048780     48.000000
 -0.463415  0.170732  0.048780     48.000000
 -0.439024  0.170732  0.048780     48.000000
 -0.414634  0.170732  0.048780     48.000000
 -0.390244  0.170732  0.048780     48.000000
 -0.365854  0.170732  0.048780     48.000000
 -0.341463  0.170732  0.048780     48.000000
 -0.317073  0.170732  0.048780     48.000000
 -0.292683  0.170732  0.048780     48.000000
 -0.268293  0.170732  0.048780     48.000000
 -0.243902  0.170732  0.048780     48.000000
 -0.219512  0.170732  0.048780     48.000000
 -0.195122  0.170732  0.048780     48.000000
 -0.170732  0.170732  0.048780     48.000000
 -0.146341  0.170732  0.048780     48.000000
 -0.121951  0.170732  0.048780     24.000000
  0.243902  0.195122  0.048780     24.000000
  0.268293  0.195122  0.048780     48.000000
  0.292683  0.195122  0.048780     48.000000
  0.317073  0.195122  0.048780     48.000000
  0.341463  0.195122  0.048780     48.000000
  0.365854  0.195122  0.048780     48.000000
  0.390244  0.195122  0.048780     48.000000
  0.414634  0.195122  0.048780     48.000000
  0.439024  0.195122  0.048780     48.000000
  0.463415  0.195122  0.048780     48.000000
  0.487805  0.195122  0.048780     48.000000
 -0.487805  0.195122  0.048780     48.000000
 -0.463415  0.195122  0.048780     48.000000
 -0.439024  0.195122  0.048780     48.000000
 -0.414634  0.195122  0.048780     48.000000
 -0.390244  0.195122  0.048780     48.000000
 -0.365854  0.195122  0.048780     48.000000
 -0.341463  0.195122  0.048780     48.000000
 -0.317073  0.195122  0.048780     48.000000
 -0.292683  0.195122  0.048780     48.000000
 -0.268293  0.195122  0.048780     48.000000
 -0.243902  0.195122  0.048780     48.000000
 -0.219512  0.195122  0.048780     48.000000
 -0.195122  0.195122  0.048780     48.000000
 -0.170732  0.195122  0.048780     48.000000
 -0.146341  0.195122  0.048780     24.000000
  0.268293  0.219512  0.048780     24.000000
  0.292683  0.219512  0.048780     48.000000
  0.317073  0.219512  0.048780     48.000000
  0.341463  0.219512  0.048780     48.000000
  0.365854  0.219512  0.048780     48.000000
  0.390244  0.219512  0.048780     48.000000
  0.414634  0.219512  0.048780     48.000000
  0.439024  0.219512  0.048780     48.000000
  0.463415  0.219512  0.048780     48.000000
  0.487805  0.219512  0.048780     48.000000
 -0.487805  0.219512  0.048780     48.000000
 -0.463415  0.219512  0.048780     48.000000
 -0.439024  0.219512  0.048780     48.000000
 -0.414634  0.219512  0.048780     48.000000
 -0.390244  0.219512  0.048780     48.000000
 -0.365854  0.219512  0.048780     48.000000
 -0.341463  0.219512  0.048780     48.000000
 -0.317073  0.219512  0.048780     48.000000
 -0.292683  0.219512  0.048780     48.000000
 -0.268293  0.219512  0.048780     48.000000
 -0.243902  0.219512  0.048780     48.000000
 -0.219512  0.219512  0.048780     48.000000
 -0.195122  0.219512  0.048780     48.000000
 -0.170732  0.219512  0.048780     24.000000
  0.292683  0.243902  0.048780     24.000000
  0.317073  0.243902  0.048780     48.000000
  0.341463  0.243902  0.048780     48.000000
  0.365854  0.243902  0.048780     48.000000
  0.390244  0.243902  0.048780     48.000000
  0.414634  0.243902  0.048780     48.000000
  0.439024  0.243902  0.048780     48.000000
  0.463415  0.243902  0.048780     48.000000
  0.487805  0.243902  0.048780     48.000000
 -0.487805  0.243902  0.048780     48.000000
 -0.463415  0.243902  0.048780     48.000000
 -0.439024  0.243902  0.048780     48.000000
 -0.414634  0.243902  0.048780     48.000000
 -0.390244  0.243902  0.048780     48.000000
 -0.365854  0.243902  0.048780     48.000000
 -0.341463  0.243902  0.048780     48.000000
 -0.317073  0.243902  0.048780     48.000000
 -0.292683  0.243902  0.048780     48.000000
 -0.268293  0.243902  0.048780     48.000000
 -0.243902  0.243902  0.048780     48.000000
 -0.219512  0.243902  0.048780     48.000000
 -0.195122  0.243902  0.048780     24.000000
  0.317073  0.268293  0.048780     24.000000
  0.341463  0.268293  0.048780     48.000000
  0.365854  0.268293  0.048780     48.000000
  0.390244  0.268293  0.048780     48.000000
  0.414634  0.268293  0.048780     48.000000
  0.439024  0.268293  0.048780     48.000000
  0.463415  0.268293  0.048780     48.000000
  0.487805  0.268293  0.048780     48.000000
 -0.487805  0.268293  0.048780     48.000000
 -0.463415  0.268293  0.048780     48.000000
 -0.439024  0.268293  0.048780     48.000000
 -0.414634  0.268293  0.048780     48.000000
 -0.390244  0.268293  0.048780     48.000000
 -0.365854  0.268293  0.048780     48.000000
 -0.341463  0.268293  0.048780     48.000000
 -0.317073  0.268293  0.048780     48.000000
 -0.292683  0.268293  0.048780     48.000000
 -0.268293  0.268293  0.048780     48.000000
 -0.243902  0.268293  0.048780     48.000000
 -0.219512  0.268293  0.048780     24.000000
  0.341463  0.292683  0.048780     24.000000
  0.365854  0.292683  0.048780     48.000000
  0.390244  0.292683  0.048780     48.000000
  0.414634  0.292683  0.048780     48.000000
  0.439024  0.292683  0.048780     48.000000
  0.463415  0.292683  0.048780     48.000000
  0.487805  0.292683  0.048780     48.000000
 -0.487805  0.292683  0.048780     48.000000
 -0.463415  0.292683  0.048780     48.000000
 -0.439024  0.292683  0.048780     48.000000
 -0.414634  0.292683  0.048780     48.000000
 -0.390244  0.292683  0.048780     48.000000
 -0.365854  0.292683  0.048780     48.000000
 -0.341463  0.292683  0.048780     48.000000
 -0.317073  0.292683  0.048780     48.000000
 -0.292683  0.292683  0.048780     48.000000
 -0.268293  0.292683  0.048780     48.000000
 -0.243902  0.292683  0.048780     24.000000
  0.365854  0.317073  0.048780     24.000000
  0.390244  0.317073  0.048780     48.000000
  0.414634  0.317073  0.048780     48.000000
  0.439024  0.317073  0.048780     48.000000
  0.463415  0.317073  0.048780     48.000000
  0.487805  0.317073  0.048780     48.000000
 -0.487805  0.317073  0.048780     48.000000
 -0.463415  0.317073  0.048780     48.000000
 -0.439024  0.317073  0.048780     48.000000
 -0.414634  0.317073  0.048780     48.000000
 -0.390244  0.317073  0.048780     48.000000
 -0.365854  0.317073  0.048780     48.000000
 -0.341463  0.317073  0.048780     48.000000
 -0.317073  0.317073  0.048780     48.000000
 -0.292683  0.317073  0.048780     48.000000
 -0.268293  0.317073  0.048780     24.000000
  0.390244  0.341463  0.048780     24.000000
  0.414634  0.341463  0.048780     48.000000
  0.439024  0.341463  0.048780     48.000000
  0.463415  0.341463  0.048780     48.000000
  0.487805  0.341463  0.048780     48.000000
 -0.487805  0.341463  0.048780     48.000000
 -0.463415  0.341463  0.048780     48.000000
 -0.439024  0.341463  0.048780     48.000000
 -0.414634  0.341463  0.048780     48.000000
 -0.390244  0.341463  0.048780     48.000000
 -0.365854  0.341463  0.048780     48.000000
 -0.341463  0.341463  0.048780     48.000000
 -0.317073  0.341463  0.048780     48.000000
 -0.292683  0.341463  0.048780     24.000000
  0.414634  0.365854  0.048780     24.000000
  0.439024  0.365854  0.048780     48.000000
  0.463415  0.365854  0.048780     48.000000
  0.487805  0.365854  0.048780     48.000000
 -0.487805  0.365854  0.048780     48.000000
 -0.463415  0.365854  0.048780     48.000000
 -0.439024  0.365854  0.048780     48.000000
 -0.414634  0.365854  0.048780     48.000000
 -0.390244  0.365854  0.048780     48.000000
 -0.365854  0.365854  0.048780     48.000000
 -0.341463  0.365854  0.048780     48.000000
 -0.317073  0.365854  0.048780     24.000000
  0.439024  0.390244  0.048780     24.000000
  0.463415  0.390244  0.048780     48.000000
  0.487805  0.390244  0.048780     48.000000
 -0.487805  0.390244  0.048780     48.000000
 -0.463415  0.390244  0.048780     48.000000
 -0.439024  0.390244  0.048780     48.000000
 -0.414634  0.390244  0.048780     48.000000
 -0.390244  0.390244  0.048780     48.000000
 -0.365854  0.390244  0.048780     48.000000
 -0.341463  0.390244  0.048780     24.000000
  0.463415  0.414634  0.048780     24.000000
  0.487805  0.414634  0.048780     48.000000
 -0.487805  0.414634  0.048780     48.000000
 -0.463415  0.414634  0.048780     48.000000
 -0.439024  0.414634  0.048780     48.000000
 -0.414634  0.414634  0.048780     48.000000
 -0.390244  0.414634  0.048780     48.000000
 -0.365854  0.414634  0.048780     24.000000
  0.487805  0.439024  0.048780     24.000000
 -0.487805  0.439024  0.048780     48.000000
 -0.463415  0.439024  0.048780     48.000000
 -0.439024  0.439024  0.048780     48.000000
 -0.414634  0.439024  0.048780     48.000000
 -0.390244  0.439024  0.048780     24.000000
 -0.487805  0.463415  0.048780     24.000000
 -0.463415  0.463415  0.048780     48.000000
 -0.439024  0.463415  0.048780     48.000000
 -0.414634  0.463415  0.048780     24.000000
 -0.463415  0.487805  0.048780     24.000000
 -0.439024  0.487805  0.048780     24.000000
  0.219512  0.146341  0.073171     24.000000
  0.243902  0.146341  0.073171     48.000000
  0.268293  0.146341  0.073171     48.000000
  0.292683  0.146341  0.073171     48.000000
  0.317073  0.146341  0.073171     48.000000
  0.341463  0.146341  0.073171     48.000000
  0.365854  0.146341  0.073171     48.000000
  0.390244  0.146341  0.073171     48.000000
  0.414634  0.146341  0.073171     48.000000
  0.439024  0.146341  0.073171     48.000000
  0.463415  0.146341  0.073171     48.000000
  0.487805  0.146341  0.073171     48.000000
 -0.487805  0.146341  0.073171     48.000000
 -0.463415  0.146341  0.073171     48.000000
 -0.439024  0.146341  0.073171     48.000000
  0.243902  0.170732  0.073171     24.000000
  0.268293  0.170732  0.073171     48.000000
  0.292683  0.170732  0.073171     48.000000
  0.317073  0.170732  0.073171     48.000000
  0.341463  0.170732  0.073171     48.000000
  0.365854  0.170732  0.073171     48.000000
  0.390244  0.170732  0.073171     48.000000
  0.414634  0.170732  0.073171     48.000000
  0.439024  0.170732  0.073171     48.000000
  0.463415  0.170732  0.073171     48.000000
  0.487805  0.170732  0.073171     48.000000
 -0.487805  0.170732  0.073171     48.000000
 -0.463415  0.170732  0.073171     48.000000
 -0.439024  0.170732  0.073171     48.000000
 -0.414634  0.170732  0.073171     48.000000
 -0.390244  0.170732  0.073171     48.000000
 -0.365854  0.170732  0.073171     48.000000
 -0.341463  0.170732  0.073171     48.000000
 -0.317073  0.170732  0.073171     48.000000
 -0.292683  0.170732  0.073171     48.000000
 -0.268293  0.170732  0.073171     48.000000
 -0.243902  0.170732  0.073171     48.000000
 -0.219512  0.170732  0.073171     48.000000
 -0.195122  0.170732  0.073171     48.000000
 -0.170732  0.170732  0.073171     48.000000
 -0.146341  0.170732  0.073171     48.000000
 -0.121951  0.170732  0.073171     48.000000
 -0.097561  0.170732  0.073171     24.000000
  0.268293  0.195122  0.073171     24.000000
  0.292683  0.195122  0.073171     48.000000
  0.317073  0.195122  0.073171     48.000000
  0.341463  0.195122  0.073171     48.000000
  0.365854  0.195122  0.073171     48.000000
  0.390244  0.195122  0.073171     48.000000
  0.414634  0.195122  0.073171     48.000000
  0.439024  0.195122  0.073171     48.000000
  0.463415  0.195122  0.073171     48.000000
  0.487805  0.195122  0.073171     48.000000
 -0.487805  0.195122  0.073171     48.000000
 -0.463415  0.195122  0.073171     48.000000
 -0.439024  0.195122  0.073171     48.000000
 -0.414634  0.195122  0.073171     48.000000
 -0.390244  0.195122  0.073171     48.000000
 -0.365854  0.195122  0.073171     48.000000
 -0.341463  0.195122  0.073171     48.000000
 -0.317073  0.195122  0.073171     48.000000
 -0.292683  0.195122  0.073171     48.000000
 -0.268293  0.195122  0.073171     48.000000
 -0.243902  0.195122  0.073171     48.000000
 -0.219512  0.195122  0.073171     48.000000
 -0.195122  0.195122  0.073171     48.000000
 -0.170732  0.195122  0.073171     48.000000
 -0.146341  0.195122  0.073171     48.000000
 -0.121951  0.195122  0.073171     24.000000
  0.292683  0.219512  0.073171     24.000000
  0.317073  0.219512  0.073171     48.000000
  0.341463  0.219512  0.073171     48.000000
  0.365854  0.219512  0.073171     48.000000
  0.390244  0.219512  0.073171     48.000000
  0.414634  0.219512  0.073171     48.000000
  0.439024  0.219512  0.073171     48.000000
  0.463415  0.219512  0.073171     48.000000
  0.487805  0.219512  0.073171     48.000000
 -0.487805  0.219512  0.073171     48.000000
 -0.463415  0.219512  0.073171     48.000000
 -0.439024  0.219512  0.073171     48.000000
 -0.414634  0.219512  0.073171     48.000000
 -0.390244  0.219512  0.073171     48.000000
 -0.365854  0.219512  0.073171     48.000000
 -0.341463  0.219512  0.073171     48.000000
 -0.317073  0.219512  0.073171     48.000000
 -0.292683  0.219512  0.073171     48.000000
 -0.268293  0.219512  0.073171     48.000000
 -0.243902  0.219512  0.073171     48.000000
 -0.219512  0.219512  0.073171     48.000000
 -0.195122  0.219512  0.073171     48.000000
 -0.170732  0.219512  0.073171     48.000000
 -0.146341  0.219512  0.073171     24.000000
  0.317073  0.243902  0.073171     24.000000
  0.341463  0.243902  0.073171     48.000000
  0.365854  0.243902  0.073171     48.000000
  0.390244  0.243902  0.073171     48.000000
  0.414634  0.243902  0.073171     48.000000
  0.439024  0.243902  0.073171     48.000000
  0.463415  0.243902  0.073171     48.000000
  0.487805  0.243902  0.073171     48.000000
 -0.487805  0.243902  0.073171     48.000000
 -0.463415  0.243902  0.073171     48.000000
 -0.439024  0.243902  0.073171     48.000000
 -0.414634  0.243902  0.073171     48.000000
 -0.390244  0.243902  0.073171     48.000000
 -0.365854  0.243902  0.073171     48.000000
 -0.341463  0.243902  0.073171     48.000000
 -0.317073  0.243902  0.073171     48.000000
 -0.292683  0.243902  0.073171     48.000000
 -0.268293  0.243902  0.073171     48.000000
 -0.243902  0.243902  0.073171     48.000000
 -0.219512  0.243902  0.073171     48.000000
 -0.195122  0.243902  0.073171     48.000000
 -0.170732  0.243902  0.073171     24.000000
  0.341463  0.268293  0.073171     24.000000
  0.365854  0.268293  0.073171     48.000000
  0.390244  0.268293  0.073171     48.000000
  0.414634  0.268293  0.073171     48.000000
  0.439024  0.268293  0.073171     48.000000
  0.463415  0.268293  0.073171     48.000000
  0.487805  0.268293  0.073171     48.000000
 -0.487805  0.268293  0.073171     48.000000
 -0.463415  0.268293  0.073171     48.000000
 -0.439024  0.268293  0.073171     48.000000
 -0.414634  0.268293  0.073171     48.000000
 -0.390244  0.268293  0.073171     48.000000
 -0.365854  0.268293  0.073171     48.000000
 -0.341463  0.268293  0.073171     48.000000
 -0.317073  0.268293  0.073171     48.000000
 -0.292683  0.268293  0.073171     48.000000
 -0.268293  0.268293  0.073171     48.000000
 -0.243902  0.268293  0.073171     48.000000
 -0.219512  0.268293  0.073171     48.000000
 -0.195122  0.268293  0.073171     24.000000
  0.365854  0.292683  0.073171     24.000000
  0.390244  0.292683  0.073171     48.000000
  0.414634  0.292683  0.073171     48.000000
  0.439024  0.292683  0.073171     48.000000
  0.463415  0.292683  0.073171     48.000000
  0.487805  0.292683  0.073171     48.000000
 -0.487805  0.292683  0.073171     48.000000
 -0.463415  0.292683  0.073171     48.000000
 -0.439024  0.292683  0.073171     48.000000
 -0.414634  0.292683  0.073171     48.000000
 -0.390244  0.292683  0.073171     48.000000
 -0.365854  0.292683  0.073171     48.000000
 -0.341463  0.292683  0.073171     48.000000
 -0.317073  0.292683  0.073171     48.000000
 -0.292683  0.292683  0.073171     48.000000
 -0.268293  0.292683  0.073171     48.000000
 -0.243902  0.292683  0.073171     48.000000
 -0.219512  0.292683  0.073171     24.000000
  0.390244  0.317073  0.073171     24.000000
  0.414634  0.317073  0.073171     48.000000
  0.439024  0.317073  0.073171     48.000000
  0.463415  0.317073  0.073171     48.000000
  0.487805  0.317073  0.073171     48.000000
 -0.487805  0.317073  0.073171     48.000000
 -0.463415  0.317073  0.073171     48.000000
 -0.439024  0.317073  0.073171     48.000000
 -0.414634  0.317073  0.073171     48.000000
 -0.390244  0.317073  0.073171     48.000000
 -0.365854  0.317073  0.073171     48.000000
 -0.341463  0.317073  0.073171     48.000000
 -0.317073  0.317073  0.073171     48.000000
 -0.292683  0.317073  0.073171     48.000000
 -0.268293  0.317073  0.073171     48.000000
 -0.243902  0.317073  0.073171     24.000000
  0.414634  0.341463  0.073171     24.000000
  0.439024  0.341463  0.073171     48.000000
  0.463415  0.341463  0.073171     48.000000
  0.487805  0.341463  0.073171     48.000000
 -0.487805  0.341463  0.073171     48.000000
 -0.463415  0.341463  0.073171     48.000000
 -0.439024  0.341463  0.073171     48.000000
 -0.414634  0.341463  0.073171     48.000000
 -0.390244  0.341463  0.073171     48.000000
 -0.365854  0.341463  0.073171     48.000000
 -0.341463  0.341463  0.073171     48.000000
 -0.317073  0.341463  0.073171     48.000000
 -0.292683  0.341463  0.073171     48.000000
 -0.268293  0.341463  0.073171     24.000000
  0.439024  0.365854  0.073171     24.000000
  0.463415  0.365854  0.073171     48.000000
  0.487805  0.365854  0.073171     48.000000
 -0.487805  0.365854  0.073171     48.000000
 -0.463415  0.365854  0.073171     48.000000
 -0.439024  0.365854  0.073171     48.000000
 -0.414634  0.365854  0.073171     48.000000
 -0.390244  0.365854  0.073171     48.000000
 -0.365854  0.365854  0.073171     48.000000
 -0.341463  0.365854  0.073171     48.000000
 -0.317073  0.365854  0.073171     48.000000
 -0.292683  0.365854  0.073171     24.000000
  0.463415  0.390244  0.073171     24.000000
  0.487805  0.390244  0.073171     48.000000
 -0.487805  0.390244  0.073171     48.000000
 -0.463415  0.390244  0.073171     48.000000
 -0.439024  0.390244  0.073171     48.000000
 -0.414634  0.390244  0.073171     48.000000
 -0.390244  0.390244  0.073171     48.000000
 -0.365854  0.390244  0.073171     48.000000
 -0.341463  0.390244  0.073171     48.000000
 -0.317073  0.390244  0.073171     24.000000
  0.487805  0.414634  0.073171     24.000000
 -0.487805  0.414634  0.073171     48.000000
 -0.463415  0.414634  0.073171     48.000000
 -0.439024  0.414634  0.073171     48.000000
 -0.414634  0.414634  0.073171     48.000000
 -0.390244  0.414634  0.073171     48.000000
 -0.365854  0.414634  0.073171     48.000000
 -0.341463  0.414634  0.073171     24.000000
 -0.487805  0.439024  0.073171     24.000000
 -0.463415  0.439024  0.073171     48.000000
 -0.439024  0.439024  0.073171     48.000000
 -0.414634  0.439024  0.073171     48.000000
 -0.390244  0.439024  0.073171     48.000000
 -0.365854  0.439024  0.073171     24.000000
 -0.463415  0.463415  0.073171     24.000000
 -0.439024  0.463415  0.073171     48.000000
 -0.414634  0.463415  0.073171     48.000000
 -0.390244  0.463415  0.073171     24.000000
 -0.439024  0.487805  0.073171     24.000000
 -0.414634  0.487805  0.073171     24.000000
  0.292683  0.195122  0.097561     24.000000
  0.317073  0.195122  0.097561     48.000000
  0.341463  0.195122  0.097561     48.000000
  0.365854  0.195122  0.097561     48.000000
  0.390244  0.195122  0.097561     48.000000
  0.414634  0.195122  0.097561     48.000000
  0.439024  0.195122  0.097561     48.000000
  0.463415  0.195122  0.097561     48.000000
  0.487805  0.195122  0.097561     48.000000
 -0.487805  0.195122  0.097561     48.000000
 -0.463415  0.195122  0.097561     48.000000
 -0.439024  0.195122  0.097561     48.000000
 -0.414634  0.195122  0.097561     48.000000
  0.317073  0.219512  0.097561     24.000000
  0.341463  0.219512  0.097561     48.000000
  0.365854  0.219512  0.097561     48.000000
  0.390244  0.219512  0.097561     48.000000
  0.414634  0.219512  0.097561     48.000000
  0.439024  0.219512  0.097561     48.000000
  0.463415  0.219512  0.097561     48.000000
  0.487805  0.219512  0.097561     48.000000
 -0.487805  0.219512  0.097561     48.000000
 -0.463415  0.219512  0.097561     48.000000
 -0.439024  0.219512  0.097561     48.000000
 -0.414634  0.219512  0.097561     48.000000
 -0.390244  0.219512  0.097561     48.000000
 -0.365854  0.219512  0.097561     48.000000
 -0.341463  0.219512  0.097561     48.000000
 -0.317073  0.219512  0.097561     48.000000
 -0.292683  0.219512  0.097561     48.000000
 -0.268293  0.219512  0.097561     48.000000
 -0.243902  0.219512  0.097561     48.000000
 -0.219512  0.219512  0.097561     48.000000
 -0.195122  0.219512  0.097561     48.000000
 -0.170732  0.219512  0.097561     48.000000
 -0.146341  0.219512  0.097561     48.000000
 -0.121951  0.219512  0.097561     24.000000
  0.341463  0.243902  0.097561     24.000000
  0.365854  0.243902  0.097561     48.000000
  0.390244  0.243902  0.097561     48.000000
  0.414634  0.243902  0.097561     48.000000
  0.439024  0.243902  0.097561     48.000000
  0.463415  0.243902  0.097561     48.000000
  0.487805  0.243902  0.097561     48.000000
 -0.487805  0.243902  0.097561     48.000000
 -0.463415  0.243902  0.097561     48.000000
 -0.439024  0.243902  0.097561     48.000000
 -0.414634  0.243902  0.097561     48.000000
 -0.390244  0.243902  0.097561     48.000000
 -0.365854  0.243902  0.097561     48.000000
 -0.341463  0.243902  0.097561     48.000000
 -0.317073  0.243902  0.097561     48.000000
 -0.292683  0.243902  0.097561     48.000000
 -0.268293  0.243902  0.097561     48.000000
 -0.243902  0.243902  0.097561     48.000000
 -0.219512  0.243902  0.097561     48.000000
 -0.195122  0.243902  0.097561     48.000000
 -0.170732  0.243902  0.097561     48.000000
 -0.146341  0.243902  0.097561     24.000000
  0.365854  0.268293  0.097561     24.000000
  0.390244  0.268293  0.097561     48.000000
  0.414634  0.268293  0.097561     48.000000
  0.439024  0.268293  0.097561     48.000000
  0.463415  0.268293  0.097561     48.000000
  0.487805  0.268293  0.097561     48.000000
 -0.487805  0.268293  0.097561     48.000000
 -0.463415  0.268293  0.097561     48.000000
 -0.439024  0.268293  0.097561     48.000000
 -0.414634  0.268293  0.097561     48.000000
 -0.390244  0.268293  0.097561     48.000000
 -0.365854  0.268293  0.097561     48.000000
 -0.341463  0.268293  0.097561     48.000000
 -0.317073  0.268293  0.097561     48.000000
 -0.292683  0.268293  0.097561     48.000000
 -0.268293  0.268293  0.097561     48.000000
 -0.243902  0.268293  0.097561     48.000000
 -0.219512  0.268293  0.097561     48.000000
 -0.195122  0.268293  0.097561     48.000000
 -0.170732  0.268293  0.097561     24.000000
  0.390244  0.292683  0.097561     24.000000
  0.414634  0.292683  0.097561     48.000000
  0.439024  0.292683  0.097561     48.000000
  0.463415  0.292683  0.097561     48.000000
  0.487805  0.292683  0.097561     48.000000
 -0.487805  0.292683  0.097561     48.000000
 -0.463415  0.292683  0.097561     48.000000
 -0.439024  0.292683  0.097561     48.000000
 -0.414634  0.292683  0.097561     48.000000
 -0.390244  0.292683  0.097561     48.000000
 -0.365854  0.292683  0.097561     48.000000
 -0.341463  0.292683  0.097561     48.000000
 -0.317073  0.292683  0.097561     48.000000
 -0.292683  0.292683  0.097561     48.000000
 -0.268293  0.292683  0.097561     48.000000
 -0.243902  0.292683  0.097561     48.000000
 -0.219512  0.292683  0.097561     48.000000
 -0.195122  0.292683  0.097561     24.000000
  0.414634  0.317073  0.097561     24.000000
  0.439024  0.317073  0.097561     48.000000
  0.463415  0.317073  0.097561     48.000000
  0.487805  0.317073  0.097561     48.000000
 -0.487805  0.317073  0.097561     48.000000
 -0.463415  0.317073  0.097561     48.000000
 -0.439024  0.317073  0.097561     48.000000
 -0.414634  0.317073  0.097561     48.000000
 -0.390244  0.317073  0.097561     48.000000
 -0.365854  0.317073  0.097561     48.000000
 -0.341463  0.317073  0.097561     48.000000
 -0.317073  0.317073  0.097561     48.000000
 -0.292683  0.317073  0.097561     48.000000
 -0.268293  0.317073  0.097561     48.000000
 -0.243902  0.317073  0.097561     48.000000
 -0.219512  0.317073  0.097561     24.000000
  0.439024  0.341463  0.097561     24.000000
  0.463415  0.341463  0.097561     48.000000
  0.487805  0.341463  0.097561     48.000000
 -0.487805  0.341463  0.097561     48.000000
 -0.463415  0.341463  0.097561     48.000000
 -0.439024  0.341463  0.097561     48.000000
 -0.414634  0.341463  0.097561     48.000000
 -0.390244  0.341463  0.097561     48.000000
 -0.365854  0.341463  0.097561     48.000000
 -0.341463  0.341463  0.097561     48.000000
 -0.317073  0.341463  0.097561     48.000000
 -0.292683  0.341463  0.097561     48.000000
 -0.268293  0.341463  0.097561     48.000000
 -0.243902  0.341463  0.097561     24.000000
  0.463415  0.365854  0.097561     24.000000
  0.487805  0.365854  0.097561     48.000000
 -0.487805  0.365854  0.097561     48.000000
 -0.463415  0.365854  0.097561     48.000000
 -0.439024  0.365854  0.097561     48.000000
 -0.414634  0.365854  0.097561     48.000000
 -0.390244  0.365854  0.097561     48.000000
 -0.365854  0.365854  0.097561     48.000000
 -0.341463  0.365854  0.097561     48.000000
 -0.317073  0.365854  0.097561     48.000000
 -0.292683  0.365854  0.097561     48.000000
 -0.268293  0.365854  0.097561     24.000000
  0.487805  0.390244  0.097561     24.000000
 -0.487805  0.390244  0.097561     48.000000
 -0.463415  0.390244  0.097561     48.000000
 -0.439024  0.390244  0.097561     48.000000
 -0.414634  0.390244  0.097561     48.000000
 -0.390244  0.390244  0.097561     48.000000
 -0.365854  0.390244  0.097561     48.000000
 -0.341463  0.390244  0.097561     48.000000
 -0.317073  0.390244  0.097561     48.000000
 -0.292683  0.390244  0.097561     24.000000
 -0.487805  0.414634  0.097561     24.000000
 -0.463415  0.414634  0.097561     48.000000
 -0.439024  0.414634  0.097561     48.000000
[...]
      8      31.5113      0.00000

 k-point  1738 :      -0.3902    0.3902    0.1951
  band No.  band energies     occupation 
      1      -4.3611      2.00000
      2       0.4823      2.00000
      3       2.1712      2.00000
      4       4.5220      2.00000
      5      23.2734      0.00000
      6      23.9278      0.00000
      7      27.5165      0.00000
      8      31.2951      0.00000

 k-point  1739 :      -0.3659    0.3902    0.1951
  band No.  band energies     occupation 
      1      -3.8169      2.00000
      2      -0.0475      2.00000
      3       2.0873      2.00000
      4       4.2715      2.00000
      5      23.2786      0.00000
      6      24.4465      0.00000
      7      27.7411      0.00000
      8      30.7951      0.00000

 k-point  1740 :      -0.3415    0.3902    0.1951
  band No.  band energies     occupation 
      1      -3.3124      2.00000
      2      -0.5673      2.00000
      3       2.0662      2.00000
      4       4.0911      2.00000
      5      23.2446      0.00000
      6      24.8715      0.00000
      7      28.1228      0.00000
      8      30.1252      0.00000

 k-point  1741 :      -0.3171    0.3902    0.1951
  band No.  band energies     occupation 
      1      -2.9563      2.00000
      2      -0.9370      2.00000
      3       2.0656      2.00000
      4       3.9958      2.00000
      5      23.2236      0.00000
      6      25.0950      0.00000
      7      28.6629      0.00000
      8      29.4156      0.00000

 k-point  1742 :      -0.3902    0.4146    0.1951
  band No.  band energies     occupation 
      1      -4.1618      2.00000
      2       0.4999      2.00000
      3       2.2532      2.00000
      4       4.0775      2.00000
      5      22.9791      0.00000
      6      23.6751      0.00000
      7      27.6518      0.00000
      8      31.4279      0.00000

 k-point  1743 :      -0.3659    0.4146    0.1951
  band No.  band energies     occupation 
      1      -3.6223      2.00000
      2       0.1064      2.00000
      3       2.0441      2.00000
      4       3.7994      2.00000
      5      23.3100      0.00000
      6      24.0625      0.00000
      7      27.6750      0.00000
      8      30.9096      0.00000

 k-point  1744 :      -0.3415    0.4146    0.1951
  band No.  band energies     occupation 
      1      -3.1060      2.00000
      2      -0.3374      2.00000
      3       1.9147      2.00000
      4       3.6122      2.00000
      5      23.3681      0.00000
      6      24.6698      0.00000
      7      27.7905      0.00000
      8      30.2289      0.00000

 k-point  1745 :      -0.3171    0.4146    0.1951
  band No.  band energies     occupation 
      1      -2.6900      2.00000
      2      -0.7202      2.00000
      3       1.8201      2.00000
      4       3.5325      2.00000
      5      23.4009      0.00000
      6      25.1327      0.00000
      7      28.0720      0.00000
      8      29.5031      0.00000

 k-point  1746 :      -0.2927    0.4146    0.1951
  band No.  band energies     occupation 
      1      -2.5649      2.00000
      2      -0.8321      2.00000
      3       1.7410      2.00000
      4       3.5636      2.00000
      5      23.4485      0.00000
      6      25.2968      0.00000
      7      28.4972      0.00000
      8      28.9090      0.00000

 k-point  1747 :      -0.2683    0.4146    0.1951
  band No.  band energies     occupation 
      1      -2.8328      2.00000
      2      -0.5707      2.00000
      3       1.6885      2.00000
      4       3.6948      2.00000
      5      23.5175      0.00000
      6      25.1278      0.00000
      7      28.2059      0.00000
      8      29.3463      0.00000

 k-point  1748 :      -0.2439    0.4146    0.1951
  band No.  band energies     occupation 
      1      -3.2992      2.00000
      2      -0.1528      2.00000
      3       1.7011      2.00000
      4       3.9089      2.00000
      5      23.6074      0.00000
      6      24.6810      0.00000
      7      27.8497      0.00000
      8      30.0939      0.00000

 k-point  1749 :      -0.2195    0.4146    0.1951
  band No.  band energies     occupation 
      1      -3.8251      2.00000
      2       0.2306      2.00000
      3       1.8435      2.00000
      4       4.1893      2.00000
      5      23.6902      0.00000
      6      24.0838      0.00000
      7      27.6357      0.00000
      8      30.7943      0.00000

 k-point  1750 :      -0.3659    0.4390    0.1951
  band No.  band energies     occupation 
      1      -3.4004      2.00000
      2       0.0225      2.00000
      3       2.1887      2.00000
      4       3.4272      2.00000
      5      23.0418      0.00000
      6      23.5959      0.00000
      7      28.0677      0.00000
      8      31.0314      0.00000

 k-point  1751 :      -0.3415    0.4390    0.1951
  band No.  band energies     occupation 
      1      -2.8806      2.00000
      2      -0.3253      2.00000
      3       1.9812      2.00000
      4       3.1974      2.00000
      5      23.3379      0.00000
      6      24.1341      0.00000
      7      28.0111      0.00000
      8      30.3432      0.00000

 k-point  1752 :      -0.3171    0.4390    0.1951
  band No.  band energies     occupation 
      1      -2.4263      2.00000
      2      -0.6683      2.00000
      3       1.7776      2.00000
      4       3.1215      2.00000
      5      23.4157      0.00000
      6      24.8447      0.00000
      7      28.0145      0.00000
      8      29.6046      0.00000

 k-point  1753 :      -0.2927    0.4390    0.1951
  band No.  band energies     occupation 
      1      -2.1985      2.00000
      2      -0.8425      2.00000
      3       1.5957      2.00000
      4       3.1833      2.00000
      5      23.4843      0.00000
      6      25.3620      0.00000
      7      28.1622      0.00000
      8      28.9304      0.00000

 k-point  1754 :      -0.2683    0.4390    0.1951
  band No.  band energies     occupation 
      1      -2.3783      2.00000
      2      -0.6783      2.00000
      3       1.4816      2.00000
      4       3.3506      2.00000
      5      23.5606      0.00000
      6      25.4625      0.00000
      7      28.3178      0.00000
      8      28.6820      0.00000

 k-point  1755 :      -0.2439    0.4390    0.1951
  band No.  band energies     occupation 
      1      -2.8007      2.00000
      2      -0.3776      2.00000
      3       1.4970      2.00000
      4       3.5979      2.00000
      5      23.6281      0.00000
      6      25.1468      0.00000
      7      28.0316      0.00000
      8      29.3230      0.00000

 k-point  1756 :      -0.3415    0.4634    0.1951
  band No.  band energies     occupation 
      1      -2.6353      2.00000
      2      -0.5342      2.00000
      3       2.2044      2.00000
      4       2.9114      2.00000
      5      23.1266      0.00000
      6      23.4796      0.00000
      7      28.5999      0.00000
      8      30.4704      0.00000

 k-point  1757 :      -0.3171    0.4634    0.1951
  band No.  band energies     occupation 
      1      -2.1587      2.00000
      2      -0.8387      2.00000
      3       1.9794      2.00000
      4       2.7750      2.00000
      5      23.3574      0.00000
      6      24.1604      0.00000
      7      28.4870      0.00000
      8      29.7162      0.00000

 k-point  1758 :      -0.2927    0.4634    0.1951
  band No.  band energies     occupation 
      1      -1.8581      2.00000
      2      -1.0348      2.00000
      3       1.6935      2.00000
      4       2.8630      2.00000
      5      23.4363      0.00000
      6      24.9359      0.00000
      7      28.3831      0.00000
      8      29.0260      0.00000

 k-point  1759 :      -0.2683    0.4634    0.1951
  band No.  band energies     occupation 
      1      -1.9937      2.00000
      2      -0.9008      2.00000
      3       1.4956      2.00000
      4       3.0682      2.00000
      5      23.5099      0.00000
      6      25.4551      0.00000
      7      28.3496      0.00000
      8      28.5654      0.00000

 k-point  1760 :      -0.3171    0.4878    0.1951
  band No.  band energies     occupation 
      1      -1.8854      2.00000
      2      -1.1759      2.00000
      3       2.3160      2.00000
      4       2.5444      2.00000
      5      23.2317      0.00000
      6      23.3526      0.00000
      7      29.2044      0.00000
      8      29.8419      0.00000

 k-point  1761 :      -0.2927    0.4878    0.1951
  band No.  band energies     occupation 
      1      -1.5864      2.00000
      2      -1.3378      2.00000
      3       1.9969      2.00000
      4       2.6120      2.00000
      5      23.3646      0.00000
      6      24.1656      0.00000
      7      28.9606      0.00000
      8      29.1912      0.00000

 k-point  1762 :      -0.3415    0.4390    0.2195
  band No.  band energies     occupation 
      1      -3.1000      2.00000
      2      -0.1496      2.00000
      3       1.8107      2.00000
      4       3.4650      2.00000
      5      23.9378      0.00000
      6      24.1216      0.00000
      7      27.7139      0.00000
      8      30.2097      0.00000

 k-point  1763 :      -0.3171    0.4390    0.2195
  band No.  band energies     occupation 
      1      -2.6138      2.00000
      2      -0.4803      2.00000
      3       1.6961      2.00000
      4       3.2188      2.00000
      5      23.9214      0.00000
      6      24.7481      0.00000
      7      27.8391      0.00000
      8      29.4485      0.00000

 k-point  1764 :      -0.2927    0.4390    0.2195
  band No.  band energies     occupation 
      1      -2.2619      2.00000
      2      -0.7648      2.00000
      3       1.6579      2.00000
      4       3.0859      2.00000
      5      23.8988      0.00000
      6      25.1536      0.00000
      7      28.1052      0.00000
      8      28.7754      0.00000

 k-point  1765 :      -0.3171    0.4634    0.2195
  band No.  band energies     occupation 
      1      -2.3878      2.00000
      2      -0.5874      2.00000
      3       1.8733      2.00000
      4       2.8482      2.00000
      5      24.0968      0.00000
      6      24.1580      0.00000
      7      27.9737      0.00000
      8      29.5686      0.00000

 k-point  1766 :      -0.2927    0.4634    0.2195
  band No.  band energies     occupation 
      1      -1.9782      2.00000
      2      -0.8595      2.00000
      3       1.7824      2.00000
      4       2.6706      2.00000
      5      24.1178      0.00000
      6      24.8183      0.00000
      7      27.9975      0.00000
      8      28.8444      0.00000

 k-point  1767 :      -0.2683    0.4634    0.2195
  band No.  band energies     occupation 
      1      -1.8674      2.00000
      2      -0.9331      2.00000
      3       1.6797      2.00000
      4       2.7043      2.00000
      5      24.1293      0.00000
      6      25.1727      0.00000
      7      28.1195      0.00000
      8      28.3745      0.00000

 k-point  1768 :      -0.2439    0.4634    0.2195
  band No.  band energies     occupation 
      1      -2.1645      2.00000
      2      -0.7144      2.00000
      3       1.6264      2.00000
      4       2.9053      2.00000
      5      24.1141      0.00000
      6      25.0535      0.00000
      7      27.9553      0.00000
      8      28.7361      0.00000

 k-point  1769 :      -0.2927    0.4878    0.2195
  band No.  band energies     occupation 
      1      -1.7142      2.00000
      2      -1.1076      2.00000
      3       2.0530      2.00000
      4       2.3736      2.00000
      5      24.1696      0.00000
      6      24.1808      0.00000
      7      28.3984      0.00000
      8      28.9466      0.00000

 k-point  1770 :      -0.2683    0.4878    0.2195
  band No.  band energies     occupation 
      1      -1.5498      2.00000
      2      -1.1936      2.00000
      3       1.8772      2.00000
      4       2.4124      2.00000
      5      24.1812      0.00000
      6      24.8509      0.00000
      7      28.2977      0.00000
      8      28.3864      0.00000

 k-point  1771 :      -0.2683    0.4878    0.2439
  band No.  band energies     occupation 
      1      -1.5944      2.00000
      2      -1.1118      2.00000
      3       1.8979      2.00000
      4       2.3273      2.00000
      5      24.5406      0.00000
      6      24.8592      0.00000
      7      28.0298      0.00000
      8      28.2900      0.00000


--------------------------------------------------------------------------------------------------------


 soft charge-density along one line, spin component           1
         0         1         2         3         4         5         6         7         8         9
 total charge-density along one line
 
 pseudopotential strength for first ion, spin component:           1
  9.472  12.573  -0.000   0.000   0.000   0.000  -0.000  -0.000
 12.573  16.687  -0.000   0.000   0.000   0.000  -0.000  -0.000
 -0.000  -0.000  -3.480   0.000   0.000   6.736  -0.000  -0.000
  0.000   0.000   0.000  -3.480   0.000  -0.000   6.736  -0.000
  0.000   0.000   0.000   0.000  -3.480  -0.000  -0.000   6.736
  0.000   0.000   6.736  -0.000  -0.000 -15.252   0.000   0.000
 -0.000  -0.000  -0.000   6.736  -0.000   0.000 -15.252   0.000
 -0.000  -0.000  -0.000  -0.000   6.736   0.000   0.000 -15.252
 total augmentation occupancy for first ion, spin component:           1
 10.733  -5.234   0.000   0.000   0.000   0.000   0.000   0.000
 -5.234   2.631   0.000   0.000   0.000   0.000   0.000   0.000
  0.000   0.000   1.827  -0.000  -0.000   0.180  -0.000   0.000
  0.000   0.000  -0.000   1.827  -0.000   0.000   0.180   0.000
  0.000   0.000  -0.000  -0.000   1.827   0.000  -0.000   0.180
  0.000   0.000   0.180   0.000  -0.000   0.020   0.000  -0.000
  0.000   0.000   0.000   0.180  -0.000   0.000   0.020  -0.000
  0.000  -0.000  -0.000  -0.000   0.180  -0.000   0.000   0.020


------------------------ aborting loop because EDIFF is reached ----------------------------------------


 


 total charge     
 
# of ion       s       p       d       tot
------------------------------------------
    1        0.886   1.954   0.000   2.840
    2        0.886   1.954   0.000   2.840
--------------------------------------------------
tot          1.772   3.909   0.000   5.681
 
    CHARGE:  cpu time    0.0759: real time    0.0759
    FORLOC:  cpu time    0.0002: real time    0.0002
    FORNL :  cpu time    0.1403: real time    0.1403
    STRESS:  cpu time   14.8450: real time   14.8445
    FORCOR:  cpu time    0.0158: real time    0.0158
    FORHAR:  cpu time    0.0009: real time    0.0009
    MIXING:  cpu time    0.0010: real time    0.0010
    OFIELD:  cpu time    0.0000: real time    0.0000

  FORCE on cell =-STRESS in cart. coord.  units (eV):
  Direction    XX          YY          ZZ          XY          YZ          ZX
  --------------------------------------------------------------------------------------
  Alpha Z    34.86659    34.86659    34.86659
  Ewald    -123.38210  -123.38210  -123.38210    -0.00000    -0.00000     0.00000
  Hartree     7.97759     7.97759     7.97759     0.00000     0.00000     0.00000
  E(xc)     -31.95056   -32.31226   -31.88460     0.14153    -0.01980     0.07177
  Local      -8.85130    -8.85130    -8.85130    -0.00000    -0.00000    -0.00000
  n-local    -7.60688    -6.31367    -8.97622    -0.21193    -0.20217     0.11487
  augment    -1.13048    -1.13048    -1.13048     0.00000     0.00000     0.00000
  Kinetic   139.87853   130.85469   139.86086     5.11280    -1.15608     2.06165
  Fock        0.00000     0.00000     0.00000     0.00000     0.00000     0.00000
  -------------------------------------------------------------------------------------
  Total       6.66360     6.66360     6.66360    -0.00000     0.00000    -0.00000
  in kB    1132.86662  1132.86662  1132.86662    -0.00000     0.00000    -0.00000
  external pressure =     1132.87 kB  Pullay stress =        0.00 kB


 VOLUME and BASIS-vectors are now :
 -----------------------------------------------------------------------------
  energy-cutoff  :      800.00
  volume of cell :        9.42
      direct lattice vectors                 reciprocal lattice vectors
     0.000000000  1.676500000  1.676500000    -0.298240382  0.298240382  0.298240382
     1.676500000  0.000000000  1.676500000     0.298240382 -0.298240382  0.298240382
     1.676500000  1.676500000  0.000000000     0.298240382  0.298240382 -0.298240382

  length of vectors
     2.370929037  2.370929037  2.370929037     0.516567494  0.516567494  0.516567494


 FORCES acting on ions
    electron-ion (+dipol)            ewald-force                    non-local-force                 convergence-correction
 -----------------------------------------------------------------------------------------------
   0.280E-08 0.280E-08 0.138E-08   -.135E-14 -.140E-14 0.645E-14   -.167E-15 -.971E-16 -.160E-15   0.389E-09 0.389E-09 0.389E-09
   -.280E-08 -.280E-08 -.138E-08   0.190E-14 0.870E-15 -.780E-14   0.208E-15 0.694E-16 0.139E-15   -.389E-09 -.389E-09 -.389E-09
 -----------------------------------------------------------------------------------------------
   0.209E-12 0.390E-12 0.130E-12   0.556E-15 -.531E-15 -.136E-14   0.416E-16 -.278E-16 -.208E-16   -.230E-14 -.137E-14 -.673E-15
 
 
 POSITION                                       TOTAL-FORCE (eV/Angst)
 -----------------------------------------------------------------------------------
      2.93388      2.93388      2.93388         0.000000      0.000000      0.000000
      0.41913      0.41913      0.41913        -0.000000     -0.000000     -0.000000
 -----------------------------------------------------------------------------------
    total drift:                                0.000000      0.000000      0.000000


--------------------------------------------------------------------------------------------------------



  FREE ENERGIE OF THE ION-ELECTRON SYSTEM (eV)
  ---------------------------------------------------
  free  energy   TOTEN  =       -19.09618454 eV

  energy  without entropy=      -19.09618454  energy(sigma->0) =      -19.09618454
 


--------------------------------------------------------------------------------------------------------


    POTLOK:  cpu time    0.3717: real time    0.3717


--------------------------------------------------------------------------------------------------------


     LOOP+:  cpu time  105.4986: real time  105.6053
    4ORBIT:  cpu time    0.0000: real time    0.0000
 


 total charge     
 
# of ion       s       p       d       tot
------------------------------------------
    1        0.886   1.954   0.000   2.840
    2        0.886   1.954   0.000   2.840
--------------------------------------------------
tot          1.772   3.909   0.000   5.681
 
 BZINTS: Fermi energy:   17.361345;    8.000000 electrons
         Band energy: 0.144229E+02;  BLOECHL correction:    0.000000

 total amount of memory used by VASP MPI-rank0    44593. kBytes
=======================================================================

   base      :      30000. kBytes
   nonl-proj :       6122. kBytes
   fftplans  :        918. kBytes
   grid      :        523. kBytes
   one-center:          3. kBytes
   wavefun   :       7027. kBytes
 
  
  
 General timing and accounting informations for this job:
 ========================================================
  
                  Total CPU time used (sec):      110.977
                            User time (sec):      110.595
                          System time (sec):        0.382
                         Elapsed time (sec):      111.398
  
                   Maximum memory used (kb):      108928.
                   Average memory used (kb):           0.
  
                          Minor page faults:        40159
                          Major page faults:            6
                 Voluntary context switches:         1598
