 vasp.6.1.2 22Jul20 (build Mar 11 2021 17:42:27) complex                        
  
 executed on             LinuxIFC date 2021.03.19  16:56:32
 running on   40 total cores
 distrk:  each k-point on   20 cores,    2 groups
 distr:  one band on NCORE=  10 cores,    2 groups


--------------------------------------------------------------------------------------------------------


 INCAR:
 POTCAR:    PAW_PBE C 08Apr2002                   
 POTCAR:    PAW_PBE C 08Apr2002                   
   VRHFIN =C: s2p2                                                                                  
   LEXCH  = PE                                                                                      
   EATOM  =   147.1560 eV,   10.8157 Ry                                                             
                                                                                                    
   TITEL  = PAW_PBE C 08Apr2002                                                                     
   LULTRA =        F    use ultrasoft PP ?                                                          
   IUNSCR =        1    unscreen: 0-lin 1-nonlin 2-no                                               
   RPACOR =    1.200    partial core radius                                                         
   POMASS =   12.011; ZVAL   =    4.000    mass and valenz                                          
   RCORE  =    1.500    outmost cutoff radius                                                       
   RWIGS  =    1.630; RWIGS  =    0.863    wigner-seitz radius (au A)                               
   ENMAX  =  400.000; ENMIN  =  300.000 eV                                                          
   ICORE  =        2    local potential                                                             
   LCOR   =        T    correct aug charges                                                         
   LPAW   =        T    paw PP                                                                      
   EAUG   =  644.873                                                                                
   DEXC   =    0.000                                                                                
   RMAX   =    1.529    core radius for proj-oper                                                   
   RAUG   =    1.300    factor for augmentation sphere                                              
   RDEP   =    1.501    radius for radial grids                                                     
   RDEPT  =    1.300    core radius for aug-charge                                                  
                                                                                                    
   Atomic configuration                                                                             
    4 entries                                                                                       
     n  l   j            E        occ.                                                              
     1  0  0.50      -273.3789   2.0000                                                             
     2  0  0.50       -13.7508   2.0000                                                             
     2  1  0.50        -5.2854   2.0000                                                             
     3  2  1.50        -5.4423   0.0000                                                             
   Description                                                                                      
     l       E           TYP  RCUT    TYP  RCUT                                                     
     0    -13.7508458     23  1.200                                                                 
     0     -8.2022199     23  1.200                                                                 
     1     -5.2854383     23  1.500                                                                 
     1     34.0145650     23  1.500                                                                 
     2     -5.4423304      7  1.500                                                                 
  local pseudopotential read in
  partial core-charges read in
  partial kinetic energy density read in
  atomic valenz-charges read in
  non local Contribution for L=           0  read in
    real space projection operators read in
  non local Contribution for L=           0  read in
    real space projection operators read in
  non local Contribution for L=           1  read in
    real space projection operators read in
  non local Contribution for L=           1  read in
    real space projection operators read in
    PAW grid and wavefunctions read in
 
   number of l-projection  operators is LMAX  =           4
   number of lm-projection operators is LMMAX =           8
 
  PAW_PBE C 08Apr2002                   :
 energy of atom  1       EATOM= -147.1560
 kinetic energy error for atom=    0.0016 (will be added to EATOM!!)
 
 
 POSCAR: carbon
  positions in direct lattice
  No initial velocities read in

 METAGGA = R2SCA    LMAXTAU =  6    LMIXTAU =  T

 exchange correlation table for  LEXCH =        8
   RHO(1)=    0.500       N(1)  =     2000
   RHO(2)=  100.500       N(2)  =     4000
 


--------------------------------------------------------------------------------------------------------


 ion  position               nearest neighbor table
   1  0.875  0.875  0.875-   2 1.55   2 1.55   2 1.55   2 1.55
   2  0.125  0.125  0.125-   1 1.55   1 1.55   1 1.55   1 1.55
 
  LATTYP: Found a face centered cubic cell.
 ALAT       =     3.5724921165
  
  Lattice vectors:
  
 A1 = (   0.0000000000,   1.7862460583,   1.7862460583)
 A2 = (   1.7862460583,   0.0000000000,   1.7862460583)
 A3 = (   1.7862460583,   1.7862460583,   0.0000000000)


Analysis of symmetry for initial positions (statically):
=====================================================================
 Subroutine PRICEL returns:
 Original cell was already a primitive cell.
 

 Routine SETGRP: Setting up the symmetry group for a 
 face centered cubic supercell.


 Subroutine GETGRP returns: Found 48 space group operations
 (whereof 12 operations were pure point group operations)
 out of a pool of 48 trial point group operations.


The static configuration has the point symmetry D_3d.
 The point group associated with its full space group is O_h .


Analysis of symmetry for dynamics (positions and initial velocities):
=====================================================================
 Subroutine PRICEL returns:
 Original cell was already a primitive cell.
 

 Routine SETGRP: Setting up the symmetry group for a 
 face centered cubic supercell.


 Subroutine GETGRP returns: Found 48 space group operations
 (whereof 12 operations were pure point group operations)
 out of a pool of 48 trial point group operations.


The dynamic configuration has the point symmetry D_3d.
 The point group associated with its full space group is O_h .


 Subroutine INISYM returns: Found 48 space group operations
 (whereof 12 operations are pure point group operations),
 and found     1 'primitive' translations


----------------------------------------------------------------------------------------

                                     Primitive cell                                     

  volume of cell :      11.3987

  direct lattice vectors                    reciprocal lattice vectors
     0.000000000  1.786246058  1.786246058    -0.279916643  0.279916643  0.279916643
     1.786246058  0.000000000  1.786246058     0.279916643 -0.279916643  0.279916643
     1.786246058  1.786246058  0.000000000     0.279916643  0.279916643 -0.279916643

  length of vectors
     2.526133401  2.526133401  2.526133401     0.484829847  0.484829847  0.484829847

  position of ions in fractional coordinates (direct lattice)
     0.875000000  0.875000000  0.875000000
     0.125000000  0.125000000  0.125000000

  ion indices of the primitive-cell ions
   primitive index   ion index
                 1           1
                 2           2

----------------------------------------------------------------------------------------

 
 

Automatic generation of k-mesh.
 generate k-points for:   39   39   39
Space group operators:
 irot       det(A)        alpha          n_x          n_y          n_z        tau_x        tau_y        tau_z
    1     1.000000     0.000000     1.000000     0.000000     0.000000     0.000000     0.000000     0.000000
    2    -1.000000     0.000000     1.000000     0.000000     0.000000     0.000000     0.000000     0.000000
    3     1.000000   120.000000    -0.577350    -0.577350    -0.577350     0.000000     0.000000     0.000000
    4    -1.000000   120.000000    -0.577350    -0.577350    -0.577350     0.000000     0.000000     0.000000
    5     1.000000   120.000000     0.577350     0.577350     0.577350     0.000000     0.000000     0.000000
    6    -1.000000   120.000000     0.577350     0.577350     0.577350     0.000000     0.000000     0.000000
    7     1.000000   180.000000     0.000000    -0.707107     0.707107     0.000000     0.000000     0.000000
    8    -1.000000   180.000000     0.000000    -0.707107     0.707107     0.000000     0.000000     0.000000
    9     1.000000   180.000000     0.707107    -0.707107     0.000000     0.000000     0.000000     0.000000
   10    -1.000000   180.000000     0.707107    -0.707107     0.000000     0.000000     0.000000     0.000000
   11     1.000000   180.000000     0.707107     0.000000    -0.707107     0.000000     0.000000     0.000000
   12    -1.000000   180.000000     0.707107     0.000000    -0.707107     0.000000     0.000000     0.000000
   13     1.000000    90.000000     0.000000     0.000000    -1.000000    -0.500000     0.000000     0.000000
   14    -1.000000    90.000000     0.000000     0.000000    -1.000000    -0.500000     0.000000     0.000000
   15     1.000000   180.000000     0.000000     0.707107     0.707107    -0.500000     0.000000     0.000000
   16    -1.000000   180.000000     0.000000     0.707107     0.707107    -0.500000     0.000000     0.000000
   17     1.000000    90.000000     0.000000     1.000000     0.000000    -0.500000     0.000000     0.000000
   18    -1.000000    90.000000     0.000000     1.000000     0.000000    -0.500000     0.000000     0.000000
   19     1.000000   179.999999     0.000000     0.000000     1.000000     0.000000     0.000000    -0.500000
   20    -1.000000   179.999999     0.000000     0.000000     1.000000     0.000000     0.000000    -0.500000
   21     1.000000   120.000000    -0.577350     0.577350     0.577350     0.000000     0.000000    -0.500000
   22    -1.000000   120.000000    -0.577350     0.577350     0.577350     0.000000     0.000000    -0.500000
   23     1.000000   120.000000    -0.577350     0.577350    -0.577350     0.000000     0.000000    -0.500000
   24    -1.000000   120.000000    -0.577350     0.577350    -0.577350     0.000000     0.000000    -0.500000
   25     1.000000    90.000000     0.000000     0.000000     1.000000     0.000000    -0.500000     0.000000
   26    -1.000000    90.000000     0.000000     0.000000     1.000000     0.000000    -0.500000     0.000000
   27     1.000000    90.000000    -1.000000     0.000000     0.000000     0.000000    -0.500000     0.000000
   28    -1.000000    90.000000    -1.000000     0.000000     0.000000     0.000000    -0.500000     0.000000
   29     1.000000   180.000000     0.707107     0.000000     0.707107     0.000000    -0.500000     0.000000
   30    -1.000000   180.000000     0.707107     0.000000     0.707107     0.000000    -0.500000     0.000000
   31     1.000000   120.000000     0.577350    -0.577350     0.577350    -0.500000     0.000000     0.000000
   32    -1.000000   120.000000     0.577350    -0.577350     0.577350    -0.500000     0.000000     0.000000
   33     1.000000   120.000000    -0.577350    -0.577350     0.577350    -0.500000     0.000000     0.000000
   34    -1.000000   120.000000    -0.577350    -0.577350     0.577350    -0.500000     0.000000     0.000000
   35     1.000000   180.000000     1.000000     0.000000     0.000000    -0.500000     0.000000     0.000000
   36    -1.000000   180.000000     1.000000     0.000000     0.000000    -0.500000     0.000000     0.000000
   37     1.000000    90.000000     0.000000    -1.000000     0.000000     0.000000     0.000000    -0.500000
   38    -1.000000    90.000000     0.000000    -1.000000     0.000000     0.000000     0.000000    -0.500000
   39     1.000000   180.000000     0.707107     0.707107     0.000000     0.000000     0.000000    -0.500000
   40    -1.000000   180.000000     0.707107     0.707107     0.000000     0.000000     0.000000    -0.500000
   41     1.000000    90.000000     1.000000     0.000000     0.000000     0.000000     0.000000    -0.500000
   42    -1.000000    90.000000     1.000000     0.000000     0.000000     0.000000     0.000000    -0.500000
   43     1.000000   120.000000     0.577350    -0.577350    -0.577350     0.000000    -0.500000     0.000000
   44    -1.000000   120.000000     0.577350    -0.577350    -0.577350     0.000000    -0.500000     0.000000
   45     1.000000   180.000000     0.000000     1.000000     0.000000     0.000000    -0.500000     0.000000
   46    -1.000000   180.000000     0.000000     1.000000     0.000000     0.000000    -0.500000     0.000000
   47     1.000000   120.000000     0.577350     0.577350    -0.577350     0.000000    -0.500000     0.000000
   48    -1.000000   120.000000     0.577350     0.577350    -0.577350     0.000000    -0.500000     0.000000
 TETIRR: Found   7810 inequivalent tetrahedra from   355914
 
 Subroutine IBZKPT returns following result:
 ===========================================
 
 Found   1540 irreducible k-points:
 
 Following reciprocal coordinates:
            Coordinates               Weight
  0.000000  0.000000  0.000000      1.000000
  0.025641  0.000000  0.000000      8.000000
  0.051282  0.000000  0.000000      8.000000
  0.076923  0.000000  0.000000      8.000000
  0.102564  0.000000  0.000000      8.000000
  0.128205  0.000000  0.000000      8.000000
  0.153846  0.000000  0.000000      8.000000
  0.179487  0.000000  0.000000      8.000000
  0.205128  0.000000  0.000000      8.000000
  0.230769  0.000000  0.000000      8.000000
  0.256410  0.000000  0.000000      8.000000
  0.282051  0.000000  0.000000      8.000000
  0.307692  0.000000  0.000000      8.000000
  0.333333  0.000000  0.000000      8.000000
  0.358974  0.000000  0.000000      8.000000
  0.384615  0.000000  0.000000      8.000000
  0.410256  0.000000  0.000000      8.000000
  0.435897  0.000000  0.000000      8.000000
  0.461538  0.000000  0.000000      8.000000
  0.487179  0.000000  0.000000      8.000000
  0.025641  0.025641  0.000000      6.000000
  0.051282  0.025641  0.000000     24.000000
  0.076923  0.025641  0.000000     24.000000
  0.102564  0.025641  0.000000     24.000000
  0.128205  0.025641  0.000000     24.000000
  0.153846  0.025641  0.000000     24.000000
  0.179487  0.025641  0.000000     24.000000
  0.205128  0.025641  0.000000     24.000000
  0.230769  0.025641  0.000000     24.000000
  0.256410  0.025641  0.000000     24.000000
  0.282051  0.025641  0.000000     24.000000
  0.307692  0.025641  0.000000     24.000000
  0.333333  0.025641  0.000000     24.000000
  0.358974  0.025641  0.000000     24.000000
  0.384615  0.025641  0.000000     24.000000
  0.410256  0.025641  0.000000     24.000000
  0.435897  0.025641  0.000000     24.000000
  0.461538  0.025641  0.000000     24.000000
  0.487179  0.025641  0.000000     24.000000
 -0.487179  0.025641  0.000000     24.000000
 -0.461538  0.025641  0.000000     24.000000
 -0.435897  0.025641  0.000000     24.000000
 -0.410256  0.025641  0.000000     24.000000
 -0.384615  0.025641  0.000000     24.000000
 -0.358974  0.025641  0.000000     24.000000
 -0.333333  0.025641  0.000000     24.000000
 -0.307692  0.025641  0.000000     24.000000
 -0.282051  0.025641  0.000000     24.000000
 -0.256410  0.025641  0.000000     24.000000
 -0.230769  0.025641  0.000000     24.000000
 -0.205128  0.025641  0.000000     24.000000
 -0.179487  0.025641  0.000000     24.000000
 -0.153846  0.025641  0.000000     24.000000
 -0.128205  0.025641  0.000000     24.000000
 -0.102564  0.025641  0.000000     24.000000
 -0.076923  0.025641  0.000000     24.000000
 -0.051282  0.025641  0.000000     24.000000
 -0.025641  0.025641  0.000000     12.000000
  0.051282  0.051282  0.000000      6.000000
  0.076923  0.051282  0.000000     24.000000
  0.102564  0.051282  0.000000     24.000000
  0.128205  0.051282  0.000000     24.000000
  0.153846  0.051282  0.000000     24.000000
  0.179487  0.051282  0.000000     24.000000
  0.205128  0.051282  0.000000     24.000000
  0.230769  0.051282  0.000000     24.000000
  0.256410  0.051282  0.000000     24.000000
  0.282051  0.051282  0.000000     24.000000
  0.307692  0.051282  0.000000     24.000000
  0.333333  0.051282  0.000000     24.000000
  0.358974  0.051282  0.000000     24.000000
  0.384615  0.051282  0.000000     24.000000
  0.410256  0.051282  0.000000     24.000000
  0.435897  0.051282  0.000000     24.000000
  0.461538  0.051282  0.000000     24.000000
  0.487179  0.051282  0.000000     24.000000
 -0.487179  0.051282  0.000000     24.000000
 -0.461538  0.051282  0.000000     24.000000
 -0.435897  0.051282  0.000000     24.000000
 -0.410256  0.051282  0.000000     24.000000
 -0.384615  0.051282  0.000000     24.000000
 -0.358974  0.051282  0.000000     24.000000
 -0.333333  0.051282  0.000000     24.000000
 -0.307692  0.051282  0.000000     24.000000
 -0.282051  0.051282  0.000000     24.000000
 -0.256410  0.051282  0.000000     24.000000
 -0.230769  0.051282  0.000000     24.000000
 -0.205128  0.051282  0.000000     24.000000
 -0.179487  0.051282  0.000000     24.000000
 -0.153846  0.051282  0.000000     24.000000
 -0.128205  0.051282  0.000000     24.000000
 -0.102564  0.051282  0.000000     24.000000
 -0.076923  0.051282  0.000000     24.000000
 -0.051282  0.051282  0.000000     12.000000
  0.076923  0.076923  0.000000      6.000000
  0.102564  0.076923  0.000000     24.000000
  0.128205  0.076923  0.000000     24.000000
  0.153846  0.076923  0.000000     24.000000
  0.179487  0.076923  0.000000     24.000000
  0.205128  0.076923  0.000000     24.000000
  0.230769  0.076923  0.000000     24.000000
  0.256410  0.076923  0.000000     24.000000
  0.282051  0.076923  0.000000     24.000000
  0.307692  0.076923  0.000000     24.000000
  0.333333  0.076923  0.000000     24.000000
  0.358974  0.076923  0.000000     24.000000
  0.384615  0.076923  0.000000     24.000000
  0.410256  0.076923  0.000000     24.000000
  0.435897  0.076923  0.000000     24.000000
  0.461538  0.076923  0.000000     24.000000
  0.487179  0.076923  0.000000     24.000000
 -0.487179  0.076923  0.000000     24.000000
 -0.461538  0.076923  0.000000     24.000000
 -0.435897  0.076923  0.000000     24.000000
 -0.410256  0.076923  0.000000     24.000000
 -0.384615  0.076923  0.000000     24.000000
 -0.358974  0.076923  0.000000     24.000000
 -0.333333  0.076923  0.000000     24.000000
 -0.307692  0.076923  0.000000     24.000000
 -0.282051  0.076923  0.000000     24.000000
 -0.256410  0.076923  0.000000     24.000000
 -0.230769  0.076923  0.000000     24.000000
 -0.205128  0.076923  0.000000     24.000000
 -0.179487  0.076923  0.000000     24.000000
 -0.153846  0.076923  0.000000     24.000000
 -0.128205  0.076923  0.000000     24.000000
 -0.102564  0.076923  0.000000     24.000000
 -0.076923  0.076923  0.000000     12.000000
  0.102564  0.102564  0.000000      6.000000
  0.128205  0.102564  0.000000     24.000000
  0.153846  0.102564  0.000000     24.000000
  0.179487  0.102564  0.000000     24.000000
  0.205128  0.102564  0.000000     24.000000
  0.230769  0.102564  0.000000     24.000000
  0.256410  0.102564  0.000000     24.000000
  0.282051  0.102564  0.000000     24.000000
  0.307692  0.102564  0.000000     24.000000
  0.333333  0.102564  0.000000     24.000000
  0.358974  0.102564  0.000000     24.000000
  0.384615  0.102564  0.000000     24.000000
  0.410256  0.102564  0.000000     24.000000
  0.435897  0.102564  0.000000     24.000000
  0.461538  0.102564  0.000000     24.000000
  0.487179  0.102564  0.000000     24.000000
 -0.487179  0.102564  0.000000     24.000000
 -0.461538  0.102564  0.000000     24.000000
 -0.435897  0.102564  0.000000     24.000000
 -0.410256  0.102564  0.000000     24.000000
 -0.384615  0.102564  0.000000     24.000000
 -0.358974  0.102564  0.000000     24.000000
 -0.333333  0.102564  0.000000     24.000000
 -0.307692  0.102564  0.000000     24.000000
 -0.282051  0.102564  0.000000     24.000000
 -0.256410  0.102564  0.000000     24.000000
 -0.230769  0.102564  0.000000     24.000000
 -0.205128  0.102564  0.000000     24.000000
 -0.179487  0.102564  0.000000     24.000000
 -0.153846  0.102564  0.000000     24.000000
 -0.128205  0.102564  0.000000     24.000000
 -0.102564  0.102564  0.000000     12.000000
  0.128205  0.128205  0.000000      6.000000
  0.153846  0.128205  0.000000     24.000000
  0.179487  0.128205  0.000000     24.000000
  0.205128  0.128205  0.000000     24.000000
  0.230769  0.128205  0.000000     24.000000
  0.256410  0.128205  0.000000     24.000000
  0.282051  0.128205  0.000000     24.000000
  0.307692  0.128205  0.000000     24.000000
  0.333333  0.128205  0.000000     24.000000
  0.358974  0.128205  0.000000     24.000000
  0.384615  0.128205  0.000000     24.000000
  0.410256  0.128205  0.000000     24.000000
  0.435897  0.128205  0.000000     24.000000
  0.461538  0.128205  0.000000     24.000000
  0.487179  0.128205  0.000000     24.000000
 -0.487179  0.128205  0.000000     24.000000
 -0.461538  0.128205  0.000000     24.000000
 -0.435897  0.128205  0.000000     24.000000
 -0.410256  0.128205  0.000000     24.000000
 -0.384615  0.128205  0.000000     24.000000
 -0.358974  0.128205  0.000000     24.000000
 -0.333333  0.128205  0.000000     24.000000
 -0.307692  0.128205  0.000000     24.000000
 -0.282051  0.128205  0.000000     24.000000
 -0.256410  0.128205  0.000000     24.000000
 -0.230769  0.128205  0.000000     24.000000
 -0.205128  0.128205  0.000000     24.000000
 -0.179487  0.128205  0.000000     24.000000
 -0.153846  0.128205  0.000000     24.000000
 -0.128205  0.128205  0.000000     12.000000
  0.153846  0.153846  0.000000      6.000000
  0.179487  0.153846  0.000000     24.000000
  0.205128  0.153846  0.000000     24.000000
  0.230769  0.153846  0.000000     24.000000
  0.256410  0.153846  0.000000     24.000000
  0.282051  0.153846  0.000000     24.000000
  0.307692  0.153846  0.000000     24.000000
  0.333333  0.153846  0.000000     24.000000
  0.358974  0.153846  0.000000     24.000000
  0.384615  0.153846  0.000000     24.000000
  0.410256  0.153846  0.000000     24.000000
  0.435897  0.153846  0.000000     24.000000
  0.461538  0.153846  0.000000     24.000000
  0.487179  0.153846  0.000000     24.000000
 -0.487179  0.153846  0.000000     24.000000
 -0.461538  0.153846  0.000000     24.000000
 -0.435897  0.153846  0.000000     24.000000
 -0.410256  0.153846  0.000000     24.000000
 -0.384615  0.153846  0.000000     24.000000
 -0.358974  0.153846  0.000000     24.000000
 -0.333333  0.153846  0.000000     24.000000
 -0.307692  0.153846  0.000000     24.000000
 -0.282051  0.153846  0.000000     24.000000
 -0.256410  0.153846  0.000000     24.000000
 -0.230769  0.153846  0.000000     24.000000
 -0.205128  0.153846  0.000000     24.000000
 -0.179487  0.153846  0.000000     24.000000
 -0.153846  0.153846  0.000000     12.000000
  0.179487  0.179487  0.000000      6.000000
  0.205128  0.179487  0.000000     24.000000
  0.230769  0.179487  0.000000     24.000000
  0.256410  0.179487  0.000000     24.000000
  0.282051  0.179487  0.000000     24.000000
  0.307692  0.179487  0.000000     24.000000
  0.333333  0.179487  0.000000     24.000000
  0.358974  0.179487  0.000000     24.000000
  0.384615  0.179487  0.000000     24.000000
  0.410256  0.179487  0.000000     24.000000
  0.435897  0.179487  0.000000     24.000000
  0.461538  0.179487  0.000000     24.000000
  0.487179  0.179487  0.000000     24.000000
 -0.487179  0.179487  0.000000     24.000000
 -0.461538  0.179487  0.000000     24.000000
 -0.435897  0.179487  0.000000     24.000000
 -0.410256  0.179487  0.000000     24.000000
 -0.384615  0.179487  0.000000     24.000000
 -0.358974  0.179487  0.000000     24.000000
 -0.333333  0.179487  0.000000     24.000000
 -0.307692  0.179487  0.000000     24.000000
 -0.282051  0.179487  0.000000     24.000000
 -0.256410  0.179487  0.000000     24.000000
 -0.230769  0.179487  0.000000     24.000000
 -0.205128  0.179487  0.000000     24.000000
 -0.179487  0.179487  0.000000     12.000000
  0.205128  0.205128  0.000000      6.000000
  0.230769  0.205128  0.000000     24.000000
  0.256410  0.205128  0.000000     24.000000
  0.282051  0.205128  0.000000     24.000000
  0.307692  0.205128  0.000000     24.000000
  0.333333  0.205128  0.000000     24.000000
  0.358974  0.205128  0.000000     24.000000
  0.384615  0.205128  0.000000     24.000000
  0.410256  0.205128  0.000000     24.000000
  0.435897  0.205128  0.000000     24.000000
  0.461538  0.205128  0.000000     24.000000
  0.487179  0.205128  0.000000     24.000000
 -0.487179  0.205128  0.000000     24.000000
 -0.461538  0.205128  0.000000     24.000000
 -0.435897  0.205128  0.000000     24.000000
 -0.410256  0.205128  0.000000     24.000000
 -0.384615  0.205128  0.000000     24.000000
 -0.358974  0.205128  0.000000     24.000000
 -0.333333  0.205128  0.000000     24.000000
 -0.307692  0.205128  0.000000     24.000000
 -0.282051  0.205128  0.000000     24.000000
 -0.256410  0.205128  0.000000     24.000000
 -0.230769  0.205128  0.000000     24.000000
 -0.205128  0.205128  0.000000     12.000000
  0.230769  0.230769  0.000000      6.000000
  0.256410  0.230769  0.000000     24.000000
  0.282051  0.230769  0.000000     24.000000
  0.307692  0.230769  0.000000     24.000000
  0.333333  0.230769  0.000000     24.000000
  0.358974  0.230769  0.000000     24.000000
  0.384615  0.230769  0.000000     24.000000
  0.410256  0.230769  0.000000     24.000000
  0.435897  0.230769  0.000000     24.000000
  0.461538  0.230769  0.000000     24.000000
  0.487179  0.230769  0.000000     24.000000
 -0.487179  0.230769  0.000000     24.000000
 -0.461538  0.230769  0.000000     24.000000
 -0.435897  0.230769  0.000000     24.000000
 -0.410256  0.230769  0.000000     24.000000
 -0.384615  0.230769  0.000000     24.000000
 -0.358974  0.230769  0.000000     24.000000
 -0.333333  0.230769  0.000000     24.000000
 -0.307692  0.230769  0.000000     24.000000
 -0.282051  0.230769  0.000000     24.000000
 -0.256410  0.230769  0.000000     24.000000
 -0.230769  0.230769  0.000000     12.000000
  0.256410  0.256410  0.000000      6.000000
  0.282051  0.256410  0.000000     24.000000
  0.307692  0.256410  0.000000     24.000000
  0.333333  0.256410  0.000000     24.000000
  0.358974  0.256410  0.000000     24.000000
  0.384615  0.256410  0.000000     24.000000
  0.410256  0.256410  0.000000     24.000000
  0.435897  0.256410  0.000000     24.000000
  0.461538  0.256410  0.000000     24.000000
  0.487179  0.256410  0.000000     24.000000
 -0.487179  0.256410  0.000000     24.000000
 -0.461538  0.256410  0.000000     24.000000
 -0.435897  0.256410  0.000000     24.000000
 -0.410256  0.256410  0.000000     24.000000
 -0.384615  0.256410  0.000000     24.000000
 -0.358974  0.256410  0.000000     24.000000
 -0.333333  0.256410  0.000000     24.000000
 -0.307692  0.256410  0.000000     24.000000
 -0.282051  0.256410  0.000000     24.000000
 -0.256410  0.256410  0.000000     12.000000
  0.282051  0.282051  0.000000      6.000000
  0.307692  0.282051  0.000000     24.000000
  0.333333  0.282051  0.000000     24.000000
  0.358974  0.282051  0.000000     24.000000
  0.384615  0.282051  0.000000     24.000000
  0.410256  0.282051  0.000000     24.000000
  0.435897  0.282051  0.000000     24.000000
  0.461538  0.282051  0.000000     24.000000
  0.487179  0.282051  0.000000     24.000000
 -0.487179  0.282051  0.000000     24.000000
 -0.461538  0.282051  0.000000     24.000000
 -0.435897  0.282051  0.000000     24.000000
 -0.410256  0.282051  0.000000     24.000000
 -0.384615  0.282051  0.000000     24.000000
 -0.358974  0.282051  0.000000     24.000000
 -0.333333  0.282051  0.000000     24.000000
 -0.307692  0.282051  0.000000     24.000000
 -0.282051  0.282051  0.000000     12.000000
  0.307692  0.307692  0.000000      6.000000
  0.333333  0.307692  0.000000     24.000000
  0.358974  0.307692  0.000000     24.000000
  0.384615  0.307692  0.000000     24.000000
  0.410256  0.307692  0.000000     24.000000
  0.435897  0.307692  0.000000     24.000000
  0.461538  0.307692  0.000000     24.000000
  0.487179  0.307692  0.000000     24.000000
 -0.487179  0.307692  0.000000     24.000000
 -0.461538  0.307692  0.000000     24.000000
 -0.435897  0.307692  0.000000     24.000000
 -0.410256  0.307692  0.000000     24.000000
 -0.384615  0.307692  0.000000     24.000000
 -0.358974  0.307692  0.000000     24.000000
 -0.333333  0.307692  0.000000     24.000000
 -0.307692  0.307692  0.000000     12.000000
  0.333333  0.333333  0.000000      6.000000
  0.358974  0.333333  0.000000     24.000000
  0.384615  0.333333  0.000000     24.000000
  0.410256  0.333333  0.000000     24.000000
  0.435897  0.333333  0.000000     24.000000
  0.461538  0.333333  0.000000     24.000000
  0.487179  0.333333  0.000000     24.000000
 -0.487179  0.333333  0.000000     24.000000
 -0.461538  0.333333  0.000000     24.000000
 -0.435897  0.333333  0.000000     24.000000
 -0.410256  0.333333  0.000000     24.000000
 -0.384615  0.333333  0.000000     24.000000
 -0.358974  0.333333  0.000000     24.000000
 -0.333333  0.333333  0.000000     12.000000
  0.358974  0.358974  0.000000      6.000000
  0.384615  0.358974  0.000000     24.000000
  0.410256  0.358974  0.000000     24.000000
  0.435897  0.358974  0.000000     24.000000
  0.461538  0.358974  0.000000     24.000000
  0.487179  0.358974  0.000000     24.000000
 -0.487179  0.358974  0.000000     24.000000
 -0.461538  0.358974  0.000000     24.000000
 -0.435897  0.358974  0.000000     24.000000
 -0.410256  0.358974  0.000000     24.000000
 -0.384615  0.358974  0.000000     24.000000
 -0.358974  0.358974  0.000000     12.000000
  0.384615  0.384615  0.000000      6.000000
  0.410256  0.384615  0.000000     24.000000
  0.435897  0.384615  0.000000     24.000000
  0.461538  0.384615  0.000000     24.000000
  0.487179  0.384615  0.000000     24.000000
 -0.487179  0.384615  0.000000     24.000000
 -0.461538  0.384615  0.000000     24.000000
 -0.435897  0.384615  0.000000     24.000000
 -0.410256  0.384615  0.000000     24.000000
 -0.384615  0.384615  0.000000     12.000000
  0.410256  0.410256  0.000000      6.000000
  0.435897  0.410256  0.000000     24.000000
  0.461538  0.410256  0.000000     24.000000
  0.487179  0.410256  0.000000     24.000000
 -0.487179  0.410256  0.000000     24.000000
 -0.461538  0.410256  0.000000     24.000000
 -0.435897  0.410256  0.000000     24.000000
 -0.410256  0.410256  0.000000     12.000000
  0.435897  0.435897  0.000000      6.000000
  0.461538  0.435897  0.000000     24.000000
  0.487179  0.435897  0.000000     24.000000
 -0.487179  0.435897  0.000000     24.000000
 -0.461538  0.435897  0.000000     24.000000
 -0.435897  0.435897  0.000000     12.000000
  0.461538  0.461538  0.000000      6.000000
  0.487179  0.461538  0.000000     24.000000
 -0.487179  0.461538  0.000000     24.000000
 -0.461538  0.461538  0.000000     12.000000
  0.487179  0.487179  0.000000      6.000000
 -0.487179  0.487179  0.000000     12.000000
  0.076923  0.051282  0.025641     24.000000
  0.102564  0.051282  0.025641     48.000000
  0.128205  0.051282  0.025641     48.000000
  0.153846  0.051282  0.025641     48.000000
  0.179487  0.051282  0.025641     48.000000
  0.205128  0.051282  0.025641     48.000000
  0.230769  0.051282  0.025641     48.000000
  0.256410  0.051282  0.025641     48.000000
  0.282051  0.051282  0.025641     48.000000
  0.307692  0.051282  0.025641     48.000000
  0.333333  0.051282  0.025641     48.000000
  0.358974  0.051282  0.025641     48.000000
  0.384615  0.051282  0.025641     48.000000
  0.410256  0.051282  0.025641     48.000000
  0.435897  0.051282  0.025641     48.000000
  0.461538  0.051282  0.025641     48.000000
  0.487179  0.051282  0.025641     48.000000
 -0.487179  0.051282  0.025641     48.000000
  0.102564  0.076923  0.025641     24.000000
  0.128205  0.076923  0.025641     48.000000
  0.153846  0.076923  0.025641     48.000000
  0.179487  0.076923  0.025641     48.000000
  0.205128  0.076923  0.025641     48.000000
  0.230769  0.076923  0.025641     48.000000
  0.256410  0.076923  0.025641     48.000000
  0.282051  0.076923  0.025641     48.000000
  0.307692  0.076923  0.025641     48.000000
  0.333333  0.076923  0.025641     48.000000
  0.358974  0.076923  0.025641     48.000000
  0.384615  0.076923  0.025641     48.000000
  0.410256  0.076923  0.025641     48.000000
  0.435897  0.076923  0.025641     48.000000
  0.461538  0.076923  0.025641     48.000000
  0.487179  0.076923  0.025641     48.000000
 -0.487179  0.076923  0.025641     48.000000
 -0.461538  0.076923  0.025641     48.000000
 -0.435897  0.076923  0.025641     48.000000
 -0.410256  0.076923  0.025641     48.000000
 -0.384615  0.076923  0.025641     48.000000
 -0.358974  0.076923  0.025641     48.000000
 -0.333333  0.076923  0.025641     48.000000
 -0.307692  0.076923  0.025641     48.000000
 -0.282051  0.076923  0.025641     48.000000
 -0.256410  0.076923  0.025641     48.000000
 -0.230769  0.076923  0.025641     48.000000
 -0.205128  0.076923  0.025641     48.000000
 -0.179487  0.076923  0.025641     48.000000
 -0.153846  0.076923  0.025641     48.000000
 -0.128205  0.076923  0.025641     48.000000
 -0.102564  0.076923  0.025641     48.000000
 -0.076923  0.076923  0.025641     48.000000
 -0.051282  0.076923  0.025641     24.000000
  0.128205  0.102564  0.025641     24.000000
  0.153846  0.102564  0.025641     48.000000
  0.179487  0.102564  0.025641     48.000000
  0.205128  0.102564  0.025641     48.000000
  0.230769  0.102564  0.025641     48.000000
  0.256410  0.102564  0.025641     48.000000
  0.282051  0.102564  0.025641     48.000000
  0.307692  0.102564  0.025641     48.000000
  0.333333  0.102564  0.025641     48.000000
  0.358974  0.102564  0.025641     48.000000
  0.384615  0.102564  0.025641     48.000000
  0.410256  0.102564  0.025641     48.000000
  0.435897  0.102564  0.025641     48.000000
  0.461538  0.102564  0.025641     48.000000
  0.487179  0.102564  0.025641     48.000000
 -0.487179  0.102564  0.025641     48.000000
 -0.461538  0.102564  0.025641     48.000000
 -0.435897  0.102564  0.025641     48.000000
 -0.410256  0.102564  0.025641     48.000000
 -0.384615  0.102564  0.025641     48.000000
 -0.358974  0.102564  0.025641     48.000000
 -0.333333  0.102564  0.025641     48.000000
 -0.307692  0.102564  0.025641     48.000000
 -0.282051  0.102564  0.025641     48.000000
 -0.256410  0.102564  0.025641     48.000000
 -0.230769  0.102564  0.025641     48.000000
 -0.205128  0.102564  0.025641     48.000000
 -0.179487  0.102564  0.025641     48.000000
 -0.153846  0.102564  0.025641     48.000000
 -0.128205  0.102564  0.025641     48.000000
 -0.102564  0.102564  0.025641     48.000000
 -0.076923  0.102564  0.025641     24.000000
  0.153846  0.128205  0.025641     24.000000
  0.179487  0.128205  0.025641     48.000000
  0.205128  0.128205  0.025641     48.000000
  0.230769  0.128205  0.025641     48.000000
  0.256410  0.128205  0.025641     48.000000
  0.282051  0.128205  0.025641     48.000000
  0.307692  0.128205  0.025641     48.000000
  0.333333  0.128205  0.025641     48.000000
  0.358974  0.128205  0.025641     48.000000
  0.384615  0.128205  0.025641     48.000000
  0.410256  0.128205  0.025641     48.000000
  0.435897  0.128205  0.025641     48.000000
  0.461538  0.128205  0.025641     48.000000
  0.487179  0.128205  0.025641     48.000000
 -0.487179  0.128205  0.025641     48.000000
 -0.461538  0.128205  0.025641     48.000000
 -0.435897  0.128205  0.025641     48.000000
 -0.410256  0.128205  0.025641     48.000000
 -0.384615  0.128205  0.025641     48.000000
 -0.358974  0.128205  0.025641     48.000000
 -0.333333  0.128205  0.025641     48.000000
 -0.307692  0.128205  0.025641     48.000000
 -0.282051  0.128205  0.025641     48.000000
 -0.256410  0.128205  0.025641     48.000000
 -0.230769  0.128205  0.025641     48.000000
 -0.205128  0.128205  0.025641     48.000000
 -0.179487  0.128205  0.025641     48.000000
 -0.153846  0.128205  0.025641     48.000000
 -0.128205  0.128205  0.025641     48.000000
 -0.102564  0.128205  0.025641     24.000000
  0.179487  0.153846  0.025641     24.000000
  0.205128  0.153846  0.025641     48.000000
  0.230769  0.153846  0.025641     48.000000
  0.256410  0.153846  0.025641     48.000000
  0.282051  0.153846  0.025641     48.000000
  0.307692  0.153846  0.025641     48.000000
  0.333333  0.153846  0.025641     48.000000
  0.358974  0.153846  0.025641     48.000000
  0.384615  0.153846  0.025641     48.000000
  0.410256  0.153846  0.025641     48.000000
  0.435897  0.153846  0.025641     48.000000
  0.461538  0.153846  0.025641     48.000000
  0.487179  0.153846  0.025641     48.000000
 -0.487179  0.153846  0.025641     48.000000
 -0.461538  0.153846  0.025641     48.000000
 -0.435897  0.153846  0.025641     48.000000
 -0.410256  0.153846  0.025641     48.000000
 -0.384615  0.153846  0.025641     48.000000
 -0.358974  0.153846  0.025641     48.000000
 -0.333333  0.153846  0.025641     48.000000
 -0.307692  0.153846  0.025641     48.000000
 -0.282051  0.153846  0.025641     48.000000
 -0.256410  0.153846  0.025641     48.000000
 -0.230769  0.153846  0.025641     48.000000
 -0.205128  0.153846  0.025641     48.000000
 -0.179487  0.153846  0.025641     48.000000
 -0.153846  0.153846  0.025641     48.000000
 -0.128205  0.153846  0.025641     24.000000
  0.205128  0.179487  0.025641     24.000000
  0.230769  0.179487  0.025641     48.000000
  0.256410  0.179487  0.025641     48.000000
  0.282051  0.179487  0.025641     48.000000
  0.307692  0.179487  0.025641     48.000000
  0.333333  0.179487  0.025641     48.000000
  0.358974  0.179487  0.025641     48.000000
  0.384615  0.179487  0.025641     48.000000
  0.410256  0.179487  0.025641     48.000000
  0.435897  0.179487  0.025641     48.000000
  0.461538  0.179487  0.025641     48.000000
  0.487179  0.179487  0.025641     48.000000
 -0.487179  0.179487  0.025641     48.000000
 -0.461538  0.179487  0.025641     48.000000
 -0.435897  0.179487  0.025641     48.000000
 -0.410256  0.179487  0.025641     48.000000
 -0.384615  0.179487  0.025641     48.000000
 -0.358974  0.179487  0.025641     48.000000
 -0.333333  0.179487  0.025641     48.000000
 -0.307692  0.179487  0.025641     48.000000
 -0.282051  0.179487  0.025641     48.000000
 -0.256410  0.179487  0.025641     48.000000
 -0.230769  0.179487  0.025641     48.000000
 -0.205128  0.179487  0.025641     48.000000
 -0.179487  0.179487  0.025641     48.000000
 -0.153846  0.179487  0.025641     24.000000
  0.230769  0.205128  0.025641     24.000000
  0.256410  0.205128  0.025641     48.000000
  0.282051  0.205128  0.025641     48.000000
  0.307692  0.205128  0.025641     48.000000
  0.333333  0.205128  0.025641     48.000000
  0.358974  0.205128  0.025641     48.000000
  0.384615  0.205128  0.025641     48.000000
  0.410256  0.205128  0.025641     48.000000
  0.435897  0.205128  0.025641     48.000000
  0.461538  0.205128  0.025641     48.000000
  0.487179  0.205128  0.025641     48.000000
 -0.487179  0.205128  0.025641     48.000000
 -0.461538  0.205128  0.025641     48.000000
 -0.435897  0.205128  0.025641     48.000000
 -0.410256  0.205128  0.025641     48.000000
 -0.384615  0.205128  0.025641     48.000000
 -0.358974  0.205128  0.025641     48.000000
 -0.333333  0.205128  0.025641     48.000000
 -0.307692  0.205128  0.025641     48.000000
 -0.282051  0.205128  0.025641     48.000000
 -0.256410  0.205128  0.025641     48.000000
 -0.230769  0.205128  0.025641     48.000000
 -0.205128  0.205128  0.025641     48.000000
 -0.179487  0.205128  0.025641     24.000000
  0.256410  0.230769  0.025641     24.000000
  0.282051  0.230769  0.025641     48.000000
  0.307692  0.230769  0.025641     48.000000
  0.333333  0.230769  0.025641     48.000000
  0.358974  0.230769  0.025641     48.000000
  0.384615  0.230769  0.025641     48.000000
  0.410256  0.230769  0.025641     48.000000
  0.435897  0.230769  0.025641     48.000000
  0.461538  0.230769  0.025641     48.000000
  0.487179  0.230769  0.025641     48.000000
 -0.487179  0.230769  0.025641     48.000000
 -0.461538  0.230769  0.025641     48.000000
 -0.435897  0.230769  0.025641     48.000000
 -0.410256  0.230769  0.025641     48.000000
 -0.384615  0.230769  0.025641     48.000000
 -0.358974  0.230769  0.025641     48.000000
 -0.333333  0.230769  0.025641     48.000000
 -0.307692  0.230769  0.025641     48.000000
 -0.282051  0.230769  0.025641     48.000000
 -0.256410  0.230769  0.025641     48.000000
 -0.230769  0.230769  0.025641     48.000000
 -0.205128  0.230769  0.025641     24.000000
  0.282051  0.256410  0.025641     24.000000
  0.307692  0.256410  0.025641     48.000000
  0.333333  0.256410  0.025641     48.000000
  0.358974  0.256410  0.025641     48.000000
  0.384615  0.256410  0.025641     48.000000
  0.410256  0.256410  0.025641     48.000000
  0.435897  0.256410  0.025641     48.000000
  0.461538  0.256410  0.025641     48.000000
  0.487179  0.256410  0.025641     48.000000
 -0.487179  0.256410  0.025641     48.000000
 -0.461538  0.256410  0.025641     48.000000
 -0.435897  0.256410  0.025641     48.000000
 -0.410256  0.256410  0.025641     48.000000
 -0.384615  0.256410  0.025641     48.000000
 -0.358974  0.256410  0.025641     48.000000
 -0.333333  0.256410  0.025641     48.000000
 -0.307692  0.256410  0.025641     48.000000
 -0.282051  0.256410  0.025641     48.000000
 -0.256410  0.256410  0.025641     48.000000
 -0.230769  0.256410  0.025641     24.000000
  0.307692  0.282051  0.025641     24.000000
  0.333333  0.282051  0.025641     48.000000
  0.358974  0.282051  0.025641     48.000000
  0.384615  0.282051  0.025641     48.000000
  0.410256  0.282051  0.025641     48.000000
  0.435897  0.282051  0.025641     48.000000
  0.461538  0.282051  0.025641     48.000000
  0.487179  0.282051  0.025641     48.000000
 -0.487179  0.282051  0.025641     48.000000
 -0.461538  0.282051  0.025641     48.000000
 -0.435897  0.282051  0.025641     48.000000
 -0.410256  0.282051  0.025641     48.000000
 -0.384615  0.282051  0.025641     48.000000
 -0.358974  0.282051  0.025641     48.000000
 -0.333333  0.282051  0.025641     48.000000
 -0.307692  0.282051  0.025641     48.000000
 -0.282051  0.282051  0.025641     48.000000
 -0.256410  0.282051  0.025641     24.000000
  0.333333  0.307692  0.025641     24.000000
  0.358974  0.307692  0.025641     48.000000
  0.384615  0.307692  0.025641     48.000000
  0.410256  0.307692  0.025641     48.000000
  0.435897  0.307692  0.025641     48.000000
  0.461538  0.307692  0.025641     48.000000
  0.487179  0.307692  0.025641     48.000000
 -0.487179  0.307692  0.025641     48.000000
 -0.461538  0.307692  0.025641     48.000000
 -0.435897  0.307692  0.025641     48.000000
 -0.410256  0.307692  0.025641     48.000000
 -0.384615  0.307692  0.025641     48.000000
 -0.358974  0.307692  0.025641     48.000000
 -0.333333  0.307692  0.025641     48.000000
 -0.307692  0.307692  0.025641     48.000000
 -0.282051  0.307692  0.025641     24.000000
  0.358974  0.333333  0.025641     24.000000
  0.384615  0.333333  0.025641     48.000000
  0.410256  0.333333  0.025641     48.000000
  0.435897  0.333333  0.025641     48.000000
  0.461538  0.333333  0.025641     48.000000
  0.487179  0.333333  0.025641     48.000000
 -0.487179  0.333333  0.025641     48.000000
 -0.461538  0.333333  0.025641     48.000000
 -0.435897  0.333333  0.025641     48.000000
 -0.410256  0.333333  0.025641     48.000000
 -0.384615  0.333333  0.025641     48.000000
 -0.358974  0.333333  0.025641     48.000000
 -0.333333  0.333333  0.025641     48.000000
 -0.307692  0.333333  0.025641     24.000000
  0.384615  0.358974  0.025641     24.000000
  0.410256  0.358974  0.025641     48.000000
  0.435897  0.358974  0.025641     48.000000
  0.461538  0.358974  0.025641     48.000000
  0.487179  0.358974  0.025641     48.000000
 -0.487179  0.358974  0.025641     48.000000
 -0.461538  0.358974  0.025641     48.000000
 -0.435897  0.358974  0.025641     48.000000
 -0.410256  0.358974  0.025641     48.000000
 -0.384615  0.358974  0.025641     48.000000
 -0.358974  0.358974  0.025641     48.000000
 -0.333333  0.358974  0.025641     24.000000
  0.410256  0.384615  0.025641     24.000000
  0.435897  0.384615  0.025641     48.000000
  0.461538  0.384615  0.025641     48.000000
  0.487179  0.384615  0.025641     48.000000
 -0.487179  0.384615  0.025641     48.000000
 -0.461538  0.384615  0.025641     48.000000
 -0.435897  0.384615  0.025641     48.000000
 -0.410256  0.384615  0.025641     48.000000
 -0.384615  0.384615  0.025641     48.000000
 -0.358974  0.384615  0.025641     24.000000
  0.435897  0.410256  0.025641     24.000000
  0.461538  0.410256  0.025641     48.000000
  0.487179  0.410256  0.025641     48.000000
 -0.487179  0.410256  0.025641     48.000000
 -0.461538  0.410256  0.025641     48.000000
 -0.435897  0.410256  0.025641     48.000000
 -0.410256  0.410256  0.025641     48.000000
 -0.384615  0.410256  0.025641     24.000000
  0.461538  0.435897  0.025641     24.000000
  0.487179  0.435897  0.025641     48.000000
 -0.487179  0.435897  0.025641     48.000000
 -0.461538  0.435897  0.025641     48.000000
 -0.435897  0.435897  0.025641     48.000000
 -0.410256  0.435897  0.025641     24.000000
  0.487179  0.461538  0.025641     24.000000
 -0.487179  0.461538  0.025641     48.000000
 -0.461538  0.461538  0.025641     48.000000
 -0.435897  0.461538  0.025641     24.000000
 -0.487179  0.487179  0.025641     24.000000
 -0.461538  0.487179  0.025641     24.000000
  0.153846  0.102564  0.051282     24.000000
  0.179487  0.102564  0.051282     48.000000
  0.205128  0.102564  0.051282     48.000000
  0.230769  0.102564  0.051282     48.000000
  0.256410  0.102564  0.051282     48.000000
  0.282051  0.102564  0.051282     48.000000
  0.307692  0.102564  0.051282     48.000000
  0.333333  0.102564  0.051282     48.000000
  0.358974  0.102564  0.051282     48.000000
  0.384615  0.102564  0.051282     48.000000
  0.410256  0.102564  0.051282     48.000000
  0.435897  0.102564  0.051282     48.000000
  0.461538  0.102564  0.051282     48.000000
  0.487179  0.102564  0.051282     48.000000
 -0.487179  0.102564  0.051282     48.000000
 -0.461538  0.102564  0.051282     48.000000
  0.179487  0.128205  0.051282     24.000000
  0.205128  0.128205  0.051282     48.000000
  0.230769  0.128205  0.051282     48.000000
  0.256410  0.128205  0.051282     48.000000
  0.282051  0.128205  0.051282     48.000000
  0.307692  0.128205  0.051282     48.000000
  0.333333  0.128205  0.051282     48.000000
  0.358974  0.128205  0.051282     48.000000
  0.384615  0.128205  0.051282     48.000000
  0.410256  0.128205  0.051282     48.000000
  0.435897  0.128205  0.051282     48.000000
  0.461538  0.128205  0.051282     48.000000
  0.487179  0.128205  0.051282     48.000000
 -0.487179  0.128205  0.051282     48.000000
 -0.461538  0.128205  0.051282     48.000000
 -0.435897  0.128205  0.051282     48.000000
 -0.410256  0.128205  0.051282     48.000000
 -0.384615  0.128205  0.051282     48.000000
 -0.358974  0.128205  0.051282     48.000000
 -0.333333  0.128205  0.051282     48.000000
 -0.307692  0.128205  0.051282     48.000000
 -0.282051  0.128205  0.051282     48.000000
 -0.256410  0.128205  0.051282     48.000000
 -0.230769  0.128205  0.051282     48.000000
 -0.205128  0.128205  0.051282     48.000000
 -0.179487  0.128205  0.051282     48.000000
 -0.153846  0.128205  0.051282     48.000000
 -0.128205  0.128205  0.051282     48.000000
 -0.102564  0.128205  0.051282     48.000000
 -0.076923  0.128205  0.051282     24.000000
  0.205128  0.153846  0.051282     24.000000
  0.230769  0.153846  0.051282     48.000000
  0.256410  0.153846  0.051282     48.000000
  0.282051  0.153846  0.051282     48.000000
  0.307692  0.153846  0.051282     48.000000
  0.333333  0.153846  0.051282     48.000000
  0.358974  0.153846  0.051282     48.000000
  0.384615  0.153846  0.051282     48.000000
  0.410256  0.153846  0.051282     48.000000
  0.435897  0.153846  0.051282     48.000000
  0.461538  0.153846  0.051282     48.000000
  0.487179  0.153846  0.051282     48.000000
 -0.487179  0.153846  0.051282     48.000000
 -0.461538  0.153846  0.051282     48.000000
 -0.435897  0.153846  0.051282     48.000000
 -0.410256  0.153846  0.051282     48.000000
 -0.384615  0.153846  0.051282     48.000000
 -0.358974  0.153846  0.051282     48.000000
 -0.333333  0.153846  0.051282     48.000000
 -0.307692  0.153846  0.051282     48.000000
 -0.282051  0.153846  0.051282     48.000000
 -0.256410  0.153846  0.051282     48.000000
 -0.230769  0.153846  0.051282     48.000000
 -0.205128  0.153846  0.051282     48.000000
 -0.179487  0.153846  0.051282     48.000000
 -0.153846  0.153846  0.051282     48.000000
 -0.128205  0.153846  0.051282     48.000000
 -0.102564  0.153846  0.051282     24.000000
  0.230769  0.179487  0.051282     24.000000
  0.256410  0.179487  0.051282     48.000000
  0.282051  0.179487  0.051282     48.000000
  0.307692  0.179487  0.051282     48.000000
  0.333333  0.179487  0.051282     48.000000
  0.358974  0.179487  0.051282     48.000000
  0.384615  0.179487  0.051282     48.000000
  0.410256  0.179487  0.051282     48.000000
  0.435897  0.179487  0.051282     48.000000
  0.461538  0.179487  0.051282     48.000000
  0.487179  0.179487  0.051282     48.000000
 -0.487179  0.179487  0.051282     48.000000
 -0.461538  0.179487  0.051282     48.000000
 -0.435897  0.179487  0.051282     48.000000
 -0.410256  0.179487  0.051282     48.000000
 -0.384615  0.179487  0.051282     48.000000
 -0.358974  0.179487  0.051282     48.000000
 -0.333333  0.179487  0.051282     48.000000
 -0.307692  0.179487  0.051282     48.000000
 -0.282051  0.179487  0.051282     48.000000
 -0.256410  0.179487  0.051282     48.000000
 -0.230769  0.179487  0.051282     48.000000
 -0.205128  0.179487  0.051282     48.000000
 -0.179487  0.179487  0.051282     48.000000
 -0.153846  0.179487  0.051282     48.000000
 -0.128205  0.179487  0.051282     24.000000
  0.256410  0.205128  0.051282     24.000000
  0.282051  0.205128  0.051282     48.000000
  0.307692  0.205128  0.051282     48.000000
  0.333333  0.205128  0.051282     48.000000
  0.358974  0.205128  0.051282     48.000000
  0.384615  0.205128  0.051282     48.000000
  0.410256  0.205128  0.051282     48.000000
  0.435897  0.205128  0.051282     48.000000
  0.461538  0.205128  0.051282     48.000000
  0.487179  0.205128  0.051282     48.000000
 -0.487179  0.205128  0.051282     48.000000
 -0.461538  0.205128  0.051282     48.000000
 -0.435897  0.205128  0.051282     48.000000
 -0.410256  0.205128  0.051282     48.000000
 -0.384615  0.205128  0.051282     48.000000
 -0.358974  0.205128  0.051282     48.000000
 -0.333333  0.205128  0.051282     48.000000
 -0.307692  0.205128  0.051282     48.000000
 -0.282051  0.205128  0.051282     48.000000
 -0.256410  0.205128  0.051282     48.000000
 -0.230769  0.205128  0.051282     48.000000
 -0.205128  0.205128  0.051282     48.000000
 -0.179487  0.205128  0.051282     48.000000
 -0.153846  0.205128  0.051282     24.000000
  0.282051  0.230769  0.051282     24.000000
  0.307692  0.230769  0.051282     48.000000
  0.333333  0.230769  0.051282     48.000000
  0.358974  0.230769  0.051282     48.000000
  0.384615  0.230769  0.051282     48.000000
  0.410256  0.230769  0.051282     48.000000
  0.435897  0.230769  0.051282     48.000000
  0.461538  0.230769  0.051282     48.000000
  0.487179  0.230769  0.051282     48.000000
 -0.487179  0.230769  0.051282     48.000000
 -0.461538  0.230769  0.051282     48.000000
 -0.435897  0.230769  0.051282     48.000000
 -0.410256  0.230769  0.051282     48.000000
 -0.384615  0.230769  0.051282     48.000000
 -0.358974  0.230769  0.051282     48.000000
 -0.333333  0.230769  0.051282     48.000000
 -0.307692  0.230769  0.051282     48.000000
 -0.282051  0.230769  0.051282     48.000000
 -0.256410  0.230769  0.051282     48.000000
 -0.230769  0.230769  0.051282     48.000000
 -0.205128  0.230769  0.051282     48.000000
 -0.179487  0.230769  0.051282     24.000000
  0.307692  0.256410  0.051282     24.000000
  0.333333  0.256410  0.051282     48.000000
  0.358974  0.256410  0.051282     48.000000
  0.384615  0.256410  0.051282     48.000000
  0.410256  0.256410  0.051282     48.000000
  0.435897  0.256410  0.051282     48.000000
  0.461538  0.256410  0.051282     48.000000
  0.487179  0.256410  0.051282     48.000000
 -0.487179  0.256410  0.051282     48.000000
 -0.461538  0.256410  0.051282     48.000000
 -0.435897  0.256410  0.051282     48.000000
 -0.410256  0.256410  0.051282     48.000000
 -0.384615  0.256410  0.051282     48.000000
 -0.358974  0.256410  0.051282     48.000000
 -0.333333  0.256410  0.051282     48.000000
 -0.307692  0.256410  0.051282     48.000000
 -0.282051  0.256410  0.051282     48.000000
 -0.256410  0.256410  0.051282     48.000000
 -0.230769  0.256410  0.051282     48.000000
 -0.205128  0.256410  0.051282     24.000000
  0.333333  0.282051  0.051282     24.000000
  0.358974  0.282051  0.051282     48.000000
  0.384615  0.282051  0.051282     48.000000
  0.410256  0.282051  0.051282     48.000000
  0.435897  0.282051  0.051282     48.000000
  0.461538  0.282051  0.051282     48.000000
  0.487179  0.282051  0.051282     48.000000
 -0.487179  0.282051  0.051282     48.000000
 -0.461538  0.282051  0.051282     48.000000
 -0.435897  0.282051  0.051282     48.000000
 -0.410256  0.282051  0.051282     48.000000
 -0.384615  0.282051  0.051282     48.000000
 -0.358974  0.282051  0.051282     48.000000
 -0.333333  0.282051  0.051282     48.000000
 -0.307692  0.282051  0.051282     48.000000
 -0.282051  0.282051  0.051282     48.000000
 -0.256410  0.282051  0.051282     48.000000
 -0.230769  0.282051  0.051282     24.000000
  0.358974  0.307692  0.051282     24.000000
  0.384615  0.307692  0.051282     48.000000
  0.410256  0.307692  0.051282     48.000000
  0.435897  0.307692  0.051282     48.000000
  0.461538  0.307692  0.051282     48.000000
  0.487179  0.307692  0.051282     48.000000
 -0.487179  0.307692  0.051282     48.000000
 -0.461538  0.307692  0.051282     48.000000
 -0.435897  0.307692  0.051282     48.000000
 -0.410256  0.307692  0.051282     48.000000
 -0.384615  0.307692  0.051282     48.000000
 -0.358974  0.307692  0.051282     48.000000
 -0.333333  0.307692  0.051282     48.000000
 -0.307692  0.307692  0.051282     48.000000
 -0.282051  0.307692  0.051282     48.000000
 -0.256410  0.307692  0.051282     24.000000
  0.384615  0.333333  0.051282     24.000000
  0.410256  0.333333  0.051282     48.000000
  0.435897  0.333333  0.051282     48.000000
  0.461538  0.333333  0.051282     48.000000
  0.487179  0.333333  0.051282     48.000000
 -0.487179  0.333333  0.051282     48.000000
 -0.461538  0.333333  0.051282     48.000000
 -0.435897  0.333333  0.051282     48.000000
 -0.410256  0.333333  0.051282     48.000000
 -0.384615  0.333333  0.051282     48.000000
 -0.358974  0.333333  0.051282     48.000000
 -0.333333  0.333333  0.051282     48.000000
 -0.307692  0.333333  0.051282     48.000000
 -0.282051  0.333333  0.051282     24.000000
  0.410256  0.358974  0.051282     24.000000
  0.435897  0.358974  0.051282     48.000000
  0.461538  0.358974  0.051282     48.000000
  0.487179  0.358974  0.051282     48.000000
 -0.487179  0.358974  0.051282     48.000000
 -0.461538  0.358974  0.051282     48.000000
 -0.435897  0.358974  0.051282     48.000000
 -0.410256  0.358974  0.051282     48.000000
 -0.384615  0.358974  0.051282     48.000000
 -0.358974  0.358974  0.051282     48.000000
 -0.333333  0.358974  0.051282     48.000000
 -0.307692  0.358974  0.051282     24.000000
  0.435897  0.384615  0.051282     24.000000
  0.461538  0.384615  0.051282     48.000000
  0.487179  0.384615  0.051282     48.000000
 -0.487179  0.384615  0.051282     48.000000
 -0.461538  0.384615  0.051282     48.000000
 -0.435897  0.384615  0.051282     48.000000
 -0.410256  0.384615  0.051282     48.000000
 -0.384615  0.384615  0.051282     48.000000
 -0.358974  0.384615  0.051282     48.000000
 -0.333333  0.384615  0.051282     24.000000
  0.461538  0.410256  0.051282     24.000000
  0.487179  0.410256  0.051282     48.000000
 -0.487179  0.410256  0.051282     48.000000
 -0.461538  0.410256  0.051282     48.000000
 -0.435897  0.410256  0.051282     48.000000
 -0.410256  0.410256  0.051282     48.000000
 -0.384615  0.410256  0.051282     48.000000
 -0.358974  0.410256  0.051282     24.000000
  0.487179  0.435897  0.051282     24.000000
 -0.487179  0.435897  0.051282     48.000000
 -0.461538  0.435897  0.051282     48.000000
 -0.435897  0.435897  0.051282     48.000000
 -0.410256  0.435897  0.051282     48.000000
 -0.384615  0.435897  0.051282     24.000000
 -0.487179  0.461538  0.051282     24.000000
 -0.461538  0.461538  0.051282     48.000000
 -0.435897  0.461538  0.051282     48.000000
 -0.410256  0.461538  0.051282     24.000000
 -0.461538  0.487179  0.051282     24.000000
 -0.435897  0.487179  0.051282     24.000000
  0.230769  0.153846  0.076923     24.000000
  0.256410  0.153846  0.076923     48.000000
  0.282051  0.153846  0.076923     48.000000
  0.307692  0.153846  0.076923     48.000000
  0.333333  0.153846  0.076923     48.000000
  0.358974  0.153846  0.076923     48.000000
  0.384615  0.153846  0.076923     48.000000
  0.410256  0.153846  0.076923     48.000000
  0.435897  0.153846  0.076923     48.000000
  0.461538  0.153846  0.076923     48.000000
  0.487179  0.153846  0.076923     48.000000
 -0.487179  0.153846  0.076923     48.000000
 -0.461538  0.153846  0.076923     48.000000
 -0.435897  0.153846  0.076923     48.000000
  0.256410  0.179487  0.076923     24.000000
  0.282051  0.179487  0.076923     48.000000
  0.307692  0.179487  0.076923     48.000000
  0.333333  0.179487  0.076923     48.000000
  0.358974  0.179487  0.076923     48.000000
  0.384615  0.179487  0.076923     48.000000
  0.410256  0.179487  0.076923     48.000000
  0.435897  0.179487  0.076923     48.000000
  0.461538  0.179487  0.076923     48.000000
  0.487179  0.179487  0.076923     48.000000
 -0.487179  0.179487  0.076923     48.000000
 -0.461538  0.179487  0.076923     48.000000
 -0.435897  0.179487  0.076923     48.000000
 -0.410256  0.179487  0.076923     48.000000
 -0.384615  0.179487  0.076923     48.000000
 -0.358974  0.179487  0.076923     48.000000
 -0.333333  0.179487  0.076923     48.000000
 -0.307692  0.179487  0.076923     48.000000
 -0.282051  0.179487  0.076923     48.000000
 -0.256410  0.179487  0.076923     48.000000
 -0.230769  0.179487  0.076923     48.000000
 -0.205128  0.179487  0.076923     48.000000
 -0.179487  0.179487  0.076923     48.000000
 -0.153846  0.179487  0.076923     48.000000
 -0.128205  0.179487  0.076923     48.000000
 -0.102564  0.179487  0.076923     24.000000
  0.282051  0.205128  0.076923     24.000000
  0.307692  0.205128  0.076923     48.000000
  0.333333  0.205128  0.076923     48.000000
  0.358974  0.205128  0.076923     48.000000
  0.384615  0.205128  0.076923     48.000000
  0.410256  0.205128  0.076923     48.000000
  0.435897  0.205128  0.076923     48.000000
  0.461538  0.205128  0.076923     48.000000
  0.487179  0.205128  0.076923     48.000000
 -0.487179  0.205128  0.076923     48.000000
 -0.461538  0.205128  0.076923     48.000000
 -0.435897  0.205128  0.076923     48.000000
 -0.410256  0.205128  0.076923     48.000000
 -0.384615  0.205128  0.076923     48.000000
 -0.358974  0.205128  0.076923     48.000000
 -0.333333  0.205128  0.076923     48.000000
 -0.307692  0.205128  0.076923     48.000000
 -0.282051  0.205128  0.076923     48.000000
 -0.256410  0.205128  0.076923     48.000000
 -0.230769  0.205128  0.076923     48.000000
 -0.205128  0.205128  0.076923     48.000000
 -0.179487  0.205128  0.076923     48.000000
 -0.153846  0.205128  0.076923     48.000000
 -0.128205  0.205128  0.076923     24.000000
  0.307692  0.230769  0.076923     24.000000
  0.333333  0.230769  0.076923     48.000000
  0.358974  0.230769  0.076923     48.000000
  0.384615  0.230769  0.076923     48.000000
  0.410256  0.230769  0.076923     48.000000
  0.435897  0.230769  0.076923     48.000000
  0.461538  0.230769  0.076923     48.000000
  0.487179  0.230769  0.076923     48.000000
 -0.487179  0.230769  0.076923     48.000000
 -0.461538  0.230769  0.076923     48.000000
 -0.435897  0.230769  0.076923     48.000000
 -0.410256  0.230769  0.076923     48.000000
 -0.384615  0.230769  0.076923     48.000000
 -0.358974  0.230769  0.076923     48.000000
 -0.333333  0.230769  0.076923     48.000000
 -0.307692  0.230769  0.076923     48.000000
 -0.282051  0.230769  0.076923     48.000000
 -0.256410  0.230769  0.076923     48.000000
 -0.230769  0.230769  0.076923     48.000000
 -0.205128  0.230769  0.076923     48.000000
 -0.179487  0.230769  0.076923     48.000000
 -0.153846  0.230769  0.076923     24.000000
  0.333333  0.256410  0.076923     24.000000
  0.358974  0.256410  0.076923     48.000000
  0.384615  0.256410  0.076923     48.000000
  0.410256  0.256410  0.076923     48.000000
  0.435897  0.256410  0.076923     48.000000
  0.461538  0.256410  0.076923     48.000000
  0.487179  0.256410  0.076923     48.000000
 -0.487179  0.256410  0.076923     48.000000
 -0.461538  0.256410  0.076923     48.000000
 -0.435897  0.256410  0.076923     48.000000
 -0.410256  0.256410  0.076923     48.000000
 -0.384615  0.256410  0.076923     48.000000
 -0.358974  0.256410  0.076923     48.000000
 -0.333333  0.256410  0.076923     48.000000
 -0.307692  0.256410  0.076923     48.000000
 -0.282051  0.256410  0.076923     48.000000
 -0.256410  0.256410  0.076923     48.000000
 -0.230769  0.256410  0.076923     48.000000
 -0.205128  0.256410  0.076923     48.000000
 -0.179487  0.256410  0.076923     24.000000
  0.358974  0.282051  0.076923     24.000000
  0.384615  0.282051  0.076923     48.000000
  0.410256  0.282051  0.076923     48.000000
  0.435897  0.282051  0.076923     48.000000
  0.461538  0.282051  0.076923     48.000000
  0.487179  0.282051  0.076923     48.000000
 -0.487179  0.282051  0.076923     48.000000
 -0.461538  0.282051  0.076923     48.000000
 -0.435897  0.282051  0.076923     48.000000
 -0.410256  0.282051  0.076923     48.000000
 -0.384615  0.282051  0.076923     48.000000
 -0.358974  0.282051  0.076923     48.000000
 -0.333333  0.282051  0.076923     48.000000
 -0.307692  0.282051  0.076923     48.000000
 -0.282051  0.282051  0.076923     48.000000
 -0.256410  0.282051  0.076923     48.000000
 -0.230769  0.282051  0.076923     48.000000
 -0.205128  0.282051  0.076923     24.000000
  0.384615  0.307692  0.076923     24.000000
  0.410256  0.307692  0.076923     48.000000
  0.435897  0.307692  0.076923     48.000000
  0.461538  0.307692  0.076923     48.000000
  0.487179  0.307692  0.076923     48.000000
 -0.487179  0.307692  0.076923     48.000000
 -0.461538  0.307692  0.076923     48.000000
 -0.435897  0.307692  0.076923     48.000000
 -0.410256  0.307692  0.076923     48.000000
 -0.384615  0.307692  0.076923     48.000000
 -0.358974  0.307692  0.076923     48.000000
 -0.333333  0.307692  0.076923     48.000000
 -0.307692  0.307692  0.076923     48.000000
 -0.282051  0.307692  0.076923     48.000000
 -0.256410  0.307692  0.076923     48.000000
 -0.230769  0.307692  0.076923     24.000000
  0.410256  0.333333  0.076923     24.000000
  0.435897  0.333333  0.076923     48.000000
  0.461538  0.333333  0.076923     48.000000
  0.487179  0.333333  0.076923     48.000000
 -0.487179  0.333333  0.076923     48.000000
 -0.461538  0.333333  0.076923     48.000000
 -0.435897  0.333333  0.076923     48.000000
 -0.410256  0.333333  0.076923     48.000000
 -0.384615  0.333333  0.076923     48.000000
 -0.358974  0.333333  0.076923     48.000000
 -0.333333  0.333333  0.076923     48.000000
 -0.307692  0.333333  0.076923     48.000000
 -0.282051  0.333333  0.076923     48.000000
 -0.256410  0.333333  0.076923     24.000000
  0.435897  0.358974  0.076923     24.000000
  0.461538  0.358974  0.076923     48.000000
  0.487179  0.358974  0.076923     48.000000
 -0.487179  0.358974  0.076923     48.000000
 -0.461538  0.358974  0.076923     48.000000
 -0.435897  0.358974  0.076923     48.000000
 -0.410256  0.358974  0.076923     48.000000
 -0.384615  0.358974  0.076923     48.000000
 -0.358974  0.358974  0.076923     48.000000
 -0.333333  0.358974  0.076923     48.000000
 -0.307692  0.358974  0.076923     48.000000
 -0.282051  0.358974  0.076923     24.000000
  0.461538  0.384615  0.076923     24.000000
  0.487179  0.384615  0.076923     48.000000
 -0.487179  0.384615  0.076923     48.000000
 -0.461538  0.384615  0.076923     48.000000
 -0.435897  0.384615  0.076923     48.000000
 -0.410256  0.384615  0.076923     48.000000
 -0.384615  0.384615  0.076923     48.000000
 -0.358974  0.384615  0.076923     48.000000
 -0.333333  0.384615  0.076923     48.000000
 -0.307692  0.384615  0.076923     24.000000
  0.487179  0.410256  0.076923     24.000000
 -0.487179  0.410256  0.076923     48.000000
 -0.461538  0.410256  0.076923     48.000000
 -0.435897  0.410256  0.076923     48.000000
 -0.410256  0.410256  0.076923     48.000000
 -0.384615  0.410256  0.076923     48.000000
 -0.358974  0.410256  0.076923     48.000000
 -0.333333  0.410256  0.076923     24.000000
 -0.487179  0.435897  0.076923     24.000000
 -0.461538  0.435897  0.076923     48.000000
 -0.435897  0.435897  0.076923     48.000000
 -0.410256  0.435897  0.076923     48.000000
 -0.384615  0.435897  0.076923     48.000000
 -0.358974  0.435897  0.076923     24.000000
 -0.461538  0.461538  0.076923     24.000000
 -0.435897  0.461538  0.076923     48.000000
 -0.410256  0.461538  0.076923     48.000000
 -0.384615  0.461538  0.076923     24.000000
 -0.435897  0.487179  0.076923     24.000000
 -0.410256  0.487179  0.076923     24.000000
  0.307692  0.205128  0.102564     24.000000
  0.333333  0.205128  0.102564     48.000000
  0.358974  0.205128  0.102564     48.000000
  0.384615  0.205128  0.102564     48.000000
  0.410256  0.205128  0.102564     48.000000
  0.435897  0.205128  0.102564     48.000000
  0.461538  0.205128  0.102564     48.000000
  0.487179  0.205128  0.102564     48.000000
 -0.487179  0.205128  0.102564     48.000000
 -0.461538  0.205128  0.102564     48.000000
 -0.435897  0.205128  0.102564     48.000000
 -0.410256  0.205128  0.102564     48.000000
  0.333333  0.230769  0.102564     24.000000
  0.358974  0.230769  0.102564     48.000000
  0.384615  0.230769  0.102564     48.000000
  0.410256  0.230769  0.102564     48.000000
  0.435897  0.230769  0.102564     48.000000
  0.461538  0.230769  0.102564     48.000000
  0.487179  0.230769  0.102564     48.000000
 -0.487179  0.230769  0.102564     48.000000
 -0.461538  0.230769  0.102564     48.000000
 -0.435897  0.230769  0.102564     48.000000
 -0.410256  0.230769  0.102564     48.000000
 -0.384615  0.230769  0.102564     48.000000
 -0.358974  0.230769  0.102564     48.000000
 -0.333333  0.230769  0.102564     48.000000
 -0.307692  0.230769  0.102564     48.000000
 -0.282051  0.230769  0.102564     48.000000
 -0.256410  0.230769  0.102564     48.000000
 -0.230769  0.230769  0.102564     48.000000
 -0.205128  0.230769  0.102564     48.000000
 -0.179487  0.230769  0.102564     48.000000
 -0.153846  0.230769  0.102564     48.000000
 -0.128205  0.230769  0.102564     24.000000
  0.358974  0.256410  0.102564     24.000000
  0.384615  0.256410  0.102564     48.000000
  0.410256  0.256410  0.102564     48.000000
  0.435897  0.256410  0.102564     48.000000
  0.461538  0.256410  0.102564     48.000000
  0.487179  0.256410  0.102564     48.000000
 -0.487179  0.256410  0.102564     48.000000
 -0.461538  0.256410  0.102564     48.000000
 -0.435897  0.256410  0.102564     48.000000
 -0.410256  0.256410  0.102564     48.000000
 -0.384615  0.256410  0.102564     48.000000
 -0.358974  0.256410  0.102564     48.000000
 -0.333333  0.256410  0.102564     48.000000
 -0.307692  0.256410  0.102564     48.000000
 -0.282051  0.256410  0.102564     48.000000
 -0.256410  0.256410  0.102564     48.000000
 -0.230769  0.256410  0.102564     48.000000
 -0.205128  0.256410  0.102564     48.000000
 -0.179487  0.256410  0.102564     48.000000
 -0.153846  0.256410  0.102564     24.000000
  0.384615  0.282051  0.102564     24.000000
  0.410256  0.282051  0.102564     48.000000
  0.435897  0.282051  0.102564     48.000000
  0.461538  0.282051  0.102564     48.000000
  0.487179  0.282051  0.102564     48.000000
 -0.487179  0.282051  0.102564     48.000000
 -0.461538  0.282051  0.102564     48.000000
 -0.435897  0.282051  0.102564     48.000000
 -0.410256  0.282051  0.102564     48.000000
 -0.384615  0.282051  0.102564     48.000000
 -0.358974  0.282051  0.102564     48.000000
 -0.333333  0.282051  0.102564     48.000000
 -0.307692  0.282051  0.102564     48.000000
 -0.282051  0.282051  0.102564     48.000000
 -0.256410  0.282051  0.102564     48.000000
 -0.230769  0.282051  0.102564     48.000000
 -0.205128  0.282051  0.102564     48.000000
 -0.179487  0.282051  0.102564     24.000000
  0.410256  0.307692  0.102564     24.000000
  0.435897  0.307692  0.102564     48.000000
  0.461538  0.307692  0.102564     48.000000
  0.487179  0.307692  0.102564     48.000000
 -0.487179  0.307692  0.102564     48.000000
 -0.461538  0.307692  0.102564     48.000000
 -0.435897  0.307692  0.102564     48.000000
 -0.410256  0.307692  0.102564     48.000000
 -0.384615  0.307692  0.102564     48.000000
 -0.358974  0.307692  0.102564     48.000000
 -0.333333  0.307692  0.102564     48.000000
 -0.307692  0.307692  0.102564     48.000000
 -0.282051  0.307692  0.102564     48.000000
 -0.256410  0.307692  0.102564     48.000000
 -0.230769  0.307692  0.102564     48.000000
 -0.205128  0.307692  0.102564     24.000000
  0.435897  0.333333  0.102564     24.000000
  0.461538  0.333333  0.102564     48.000000
  0.487179  0.333333  0.102564     48.000000
 -0.487179  0.333333  0.102564     48.000000
 -0.461538  0.333333  0.102564     48.000000
 -0.435897  0.333333  0.102564     48.000000
 -0.410256  0.333333  0.102564     48.000000
 -0.384615  0.333333  0.102564     48.000000
 -0.358974  0.333333  0.102564     48.000000
 -0.333333  0.333333  0.102564     48.000000
 -0.307692  0.333333  0.102564     48.000000
 -0.282051  0.333333  0.102564     48.000000
 -0.256410  0.333333  0.102564     48.000000
 -0.230769  0.333333  0.102564     24.000000
  0.461538  0.358974  0.102564     24.000000
  0.487179  0.358974  0.102564     48.000000
 -0.487179  0.358974  0.102564     48.000000
 -0.461538  0.358974  0.102564     48.000000
 -0.435897  0.358974  0.102564     48.000000
 -0.410256  0.358974  0.102564     48.000000
 -0.384615  0.358974  0.102564     48.000000
 -0.358974  0.358974  0.102564     48.000000
 -0.333333  0.358974  0.102564     48.000000
 -0.307692  0.358974  0.102564     48.000000
 -0.282051  0.358974  0.102564     48.000000
 -0.256410  0.358974  0.102564     24.000000
  0.487179  0.384615  0.102564     24.000000
 -0.487179  0.384615  0.102564     48.000000
 -0.461538  0.384615  0.102564     48.000000
 -0.435897  0.384615  0.102564     48.000000
 -0.410256  0.384615  0.102564     48.000000
 -0.384615  0.384615  0.102564     48.000000
 -0.358974  0.384615  0.102564     48.000000
 -0.333333  0.384615  0.102564     48.000000
 -0.307692  0.384615  0.102564     48.000000
 -0.282051  0.384615  0.102564     24.000000
 -0.487179  0.410256  0.102564     24.000000
 -0.461538  0.410256  0.102564     48.000000
 -0.435897  0.410256  0.102564     48.000000
 -0.410256  0.410256  0.102564     48.000000
 -0.384615  0.410256  0.102564     48.000000
 -0.358974  0.410256  0.102564     48.000000
 -0.333333  0.410256  0.102564     48.000000
 -0.307692  0.410256  0.102564     24.000000
 -0.461538  0.435897  0.102564     24.000000
 -0.435897  0.435897  0.102564     48.000000
 -0.410256  0.435897  0.102564     48.000000
 -0.384615  0.435897  0.102564     48.000000
 -0.358974  0.435897  0.102564     48.000000
 -0.333333  0.435897  0.102564     24.000000
 -0.435897  0.461538  0.102564     24.000000
 -0.410256  0.461538  0.102564     48.000000
 -0.384615  0.461538  0.102564     48.000000
 -0.358974  0.461538  0.102564     24.000000
 -0.410256  0.487179  0.102564     24.000000
 -0.384615  0.487179  0.102564     24.000000
  0.384615  0.256410  0.128205     24.000000
  0.410256  0.256410  0.128205     48.000000
  0.435897  0.256410  0.128205     48.000000
  0.461538  0.256410  0.128205     48.000000
  0.487179  0.256410  0.128205     48.000000
 -0.487179  0.256410  0.128205     48.000000
 -0.461538  0.256410  0.128205     48.000000
 -0.435897  0.256410  0.128205     48.000000
 -0.410256  0.256410  0.128205     48.000000
 -0.384615  0.256410  0.128205     48.000000
  0.410256  0.282051  0.128205     24.000000
  0.435897  0.282051  0.128205     48.000000
  0.461538  0.282051  0.128205     48.000000
  0.487179  0.282051  0.128205     48.000000
 -0.487179  0.282051  0.128205     48.000000
 -0.461538  0.282051  0.128205     48.000000
 -0.435897  0.282051  0.128205     48.000000
 -0.410256  0.282051  0.128205     48.000000
 -0.384615  0.282051  0.128205     48.000000
 -0.358974  0.282051  0.128205     48.000000
 -0.333333  0.282051  0.128205     48.000000
 -0.307692  0.282051  0.128205     48.000000
 -0.282051  0.282051  0.128205     48.000000
 -0.256410  0.282051  0.128205     48.000000
 -0.230769  0.282051  0.128205     48.000000
 -0.205128  0.282051  0.128205     48.000000
 -0.179487  0.282051  0.128205     48.000000
 -0.153846  0.282051  0.128205     24.000000
  0.435897  0.307692  0.128205     24.000000
  0.461538  0.307692  0.128205     48.000000
  0.487179  0.307692  0.128205     48.000000
 -0.487179  0.307692  0.128205     48.000000
 -0.461538  0.307692  0.128205     48.000000
 -0.435897  0.307692  0.128205     48.000000
 -0.410256  0.307692  0.128205     48.000000
 -0.384615  0.307692  0.128205     48.000000
 -0.358974  0.307692  0.128205     48.000000
 -0.333333  0.307692  0.128205     48.000000
 -0.307692  0.307692  0.128205     48.000000
 -0.282051  0.307692  0.128205     48.000000
 -0.256410  0.307692  0.128205     48.000000
 -0.230769  0.307692  0.128205     48.000000
 -0.205128  0.307692  0.128205     48.000000
 -0.179487  0.307692  0.128205     24.000000
  0.461538  0.333333  0.128205     24.000000
  0.487179  0.333333  0.128205     48.000000
 -0.487179  0.333333  0.128205     48.000000
 -0.461538  0.333333  0.128205     48.000000
 -0.435897  0.333333  0.128205     48.000000
 -0.410256  0.333333  0.128205     48.000000
 -0.384615  0.333333  0.128205     48.000000
 -0.358974  0.333333  0.128205     48.000000
 -0.333333  0.333333  0.128205     48.000000
 -0.307692  0.333333  0.128205     48.000000
 -0.282051  0.333333  0.128205     48.000000
 -0.256410  0.333333  0.128205     48.000000
 -0.230769  0.333333  0.128205     48.000000
 -0.205128  0.333333  0.128205     24.000000
  0.487179  0.358974  0.128205     24.000000
 -0.487179  0.358974  0.128205     48.000000
 -0.461538  0.358974  0.128205     48.000000
 -0.435897  0.358974  0.128205     48.000000
 -0.410256  0.358974  0.128205     48.000000
 -0.384615  0.358974  0.128205     48.000000
 -0.358974  0.358974  0.128205     48.000000
 -0.333333  0.358974  0.128205     48.000000
 -0.307692  0.358974  0.128205     48.000000
 -0.282051  0.358974  0.128205     48.000000
 -0.256410  0.358974  0.128205     48.000000
 -0.230769  0.358974  0.128205     24.000000
 -0.487179  0.384615  0.128205     24.000000
 -0.461538  0.384615  0.128205     48.000000
 -0.435897  0.384615  0.128205     48.000000
 -0.410256  0.384615  0.128205     48.000000
 -0.384615  0.384615  0.128205     48.000000
 -0.358974  0.384615  0.128205     48.000000
 -0.333333  0.384615  0.128205     48.000000
 -0.307692  0.384615  0.128205     48.000000
 -0.282051  0.384615  0.128205     48.000000
 -0.256410  0.384615  0.128205     24.000000
 -0.461538  0.410256  0.128205     24.000000
 -0.435897  0.410256  0.128205     48.000000
 -0.410256  0.410256  0.128205     48.000000
 -0.384615  0.410256  0.128205     48.000000
 -0.358974  0.410256  0.128205     48.000000
 -0.333333  0.410256  0.128205     48.000000
 -0.307692  0.410256  0.128205     48.000000
 -0.282051  0.410256  0.128205     24.000000
 -0.435897  0.435897  0.128205     24.000000
 -0.410256  0.435897  0.128205     48.000000
 -0.384615  0.435897  0.128205     48.000000
 -0.358974  0.435897  0.128205     48.000000
 -0.333333  0.435897  0.128205     48.000000
 -0.307692  0.435897  0.128205     24.000000
 -0.410256  0.461538  0.128205     24.000000
 -0.384615  0.461538  0.128205     48.000000
 -0.358974  0.461538  0.128205     48.000000
 -0.333333  0.461538  0.128205     24.000000
 -0.384615  0.487179  0.128205     24.000000
 -0.358974  0.487179  0.128205     24.000000
  0.461538  0.307692  0.153846     24.000000
  0.487179  0.307692  0.153846     48.000000
 -0.487179  0.307692  0.153846     48.000000
 -0.461538  0.307692  0.153846     48.000000
 -0.435897  0.307692  0.153846     48.000000
 -0.410256  0.307692  0.153846     48.000000
 -0.384615  0.307692  0.153846     48.000000
 -0.358974  0.307692  0.153846     48.000000
  0.487179  0.333333  0.153846     24.000000
 -0.487179  0.333333  0.153846     48.000000
 -0.461538  0.333333  0.153846     48.000000
 -0.435897  0.333333  0.153846     48.000000
 -0.410256  0.333333  0.153846     48.000000
 -0.384615  0.333333  0.153846     48.000000
 -0.358974  0.333333  0.153846     48.000000
 -0.333333  0.333333  0.153846     48.000000
 -0.307692  0.333333  0.153846     48.000000
 -0.282051  0.333333  0.153846     48.000000
 -0.256410  0.333333  0.153846     48.000000
 -0.230769  0.333333  0.153846     48.000000
 -0.205128  0.333333  0.153846     48.000000
 -0.179487  0.333333  0.153846     24.000000
 -0.487179  0.358974  0.153846     24.000000
 -0.461538  0.358974  0.153846     48.000000
 -0.435897  0.358974  0.153846     48.000000
 -0.410256  0.358974  0.153846     48.000000
 -0.384615  0.358974  0.153846     48.000000
 -0.358974  0.358974  0.153846     48.000000
 -0.333333  0.358974  0.153846     48.000000
 -0.307692  0.358974  0.153846     48.000000
 -0.282051  0.358974  0.153846     48.000000
 -0.256410  0.358974  0.153846     48.000000
 -0.230769  0.358974  0.153846     48.000000
 -0.205128  0.358974  0.153846     24.000000
 -0.461538  0.384615  0.153846     24.000000
 -0.435897  0.384615  0.153846     48.000000
 -0.410256  0.384615  0.153846     48.000000
 -0.384615  0.384615  0.153846     48.000000
 -0.358974  0.384615  0.153846     48.000000
 -0.333333  0.384615  0.153846     48.000000
 -0.307692  0.384615  0.153846     48.000000
 -0.282051  0.384615  0.153846     48.000000
 -0.256410  0.384615  0.153846     48.000000
 -0.230769  0.384615  0.153846     24.000000
 -0.435897  0.410256  0.153846     24.000000
 -0.410256  0.410256  0.153846     48.000000
 -0.384615  0.410256  0.153846     48.000000
 -0.358974  0.410256  0.153846     48.000000
[...]
      8      23.5048      0.00000

 k-point  1507 :      -0.2564    0.4103    0.1795
  band No.  band energies     occupation 
      1      -4.7555      2.00000
      2      -2.0143      2.00000
      3       0.4017      2.00000
      4       2.5941      2.00000
      5      19.5228      0.00000
      6      20.7864      0.00000
      7      22.6349      0.00000
      8      24.2039      0.00000

 k-point  1508 :      -0.2308    0.4103    0.1795
  band No.  band energies     occupation 
      1      -5.1903      2.00000
      2      -1.6809      2.00000
      3       0.4999      2.00000
      4       2.8346      2.00000
      5      19.6776      0.00000
      6      20.2835      0.00000
      7      22.3058      0.00000
      8      24.8386      0.00000

 k-point  1509 :      -0.3846    0.4359    0.1795
  band No.  band energies     occupation 
      1      -5.0593      2.00000
      2      -1.7547      2.00000
      3       1.1465      2.00000
      4       2.1537      2.00000
      5      18.3497      0.00000
      6      19.3641      0.00000
      7      22.9642      0.00000
      8      25.6521      0.00000

 k-point  1510 :      -0.3590    0.4359    0.1795
  band No.  band energies     occupation 
      1      -4.6029      2.00000
      2      -2.0906      2.00000
      3       0.9383      2.00000
      4       1.9612      2.00000
      5      18.7597      0.00000
      6      19.8014      0.00000
      7      22.8374      0.00000
      8      25.1629      0.00000

 k-point  1511 :      -0.3333    0.4359    0.1795
  band No.  band energies     occupation 
      1      -4.1983      2.00000
      2      -2.4031      2.00000
      3       0.7066      2.00000
      4       1.9098      2.00000
      5      18.9615      0.00000
      6      20.4947      0.00000
      7      22.7186      0.00000
      8      24.5448      0.00000

 k-point  1512 :      -0.3077    0.4359    0.1795
  band No.  band energies     occupation 
      1      -3.9566      2.00000
      2      -2.5886      2.00000
      3       0.4914      2.00000
      4       1.9729      2.00000
      5      19.1042      0.00000
      6      21.2126      0.00000
      7      22.6464      0.00000
      8      23.8816      0.00000

 k-point  1513 :      -0.2821    0.4359    0.1795
  band No.  band energies     occupation 
      1      -4.0296      2.00000
      2      -2.5087      2.00000
      3       0.3408      2.00000
      4       2.1199      2.00000
      5      19.2434      0.00000
      6      21.5952      0.00000
      7      22.8369      0.00000
      8      23.2850      0.00000

 k-point  1514 :      -0.2564    0.4359    0.1795
  band No.  band energies     occupation 
      1      -4.3453      2.00000
      2      -2.2590      2.00000
      3       0.2985      2.00000
      4       2.3311      2.00000
      5      19.3887      0.00000
      6      21.3442      0.00000
      7      22.8616      0.00000
      8      23.4747      0.00000

 k-point  1515 :      -0.3590    0.4615    0.1795
  band No.  band energies     occupation 
      1      -4.3592      2.00000
      2      -2.3458      2.00000
      3       1.1620      2.00000
      4       1.7463      2.00000
      5      18.4760      0.00000
      6      19.0866      0.00000
      7      23.5763      0.00000
      8      25.2831      0.00000

 k-point  1516 :      -0.3333    0.4615    0.1795
  band No.  band energies     occupation 
      1      -3.9349      2.00000
      2      -2.6464      2.00000
      3       0.9455      2.00000
      4       1.6319      2.00000
      5      18.8212      0.00000
      6      19.6530      0.00000
      7      23.4353      0.00000
      8      24.6556      0.00000

 k-point  1517 :      -0.3077    0.4615    0.1795
  band No.  band energies     occupation 
      1      -3.6460      2.00000
      2      -2.8476      2.00000
      3       0.6604      2.00000
      4       1.7104      2.00000
      5      18.9707      0.00000
      6      20.4641      0.00000
      7      23.2618      0.00000
      8      23.9913      0.00000

 k-point  1518 :      -0.2821    0.4615    0.1795
  band No.  band energies     occupation 
      1      -3.7177      2.00000
      2      -2.7501      2.00000
      3       0.4358      2.00000
      4       1.8838      2.00000
      5      19.1044      0.00000
      6      21.2593      0.00000
      7      22.9593      0.00000
      8      23.4938      0.00000

 k-point  1519 :      -0.3333    0.4872    0.1795
  band No.  band energies     occupation 
      1      -3.6631      2.00000
      2      -2.9864      2.00000
      3       1.2596      2.00000
      4       1.4506      2.00000
      5      18.6405      0.00000
      6      18.8442      0.00000
      7      24.1909      0.00000
      8      24.7746      0.00000

 k-point  1520 :      -0.3077    0.4872    0.1795
  band No.  band energies     occupation 
      1      -3.3897      2.00000
      2      -3.1530      2.00000
      3       0.9642      2.00000
      4       1.5043      2.00000
      5      18.8491      0.00000
      6      19.5941      0.00000
      7      23.9587      0.00000
      8      24.1586      0.00000

 k-point  1521 :      -0.3846    0.4103    0.2051
  band No.  band energies     occupation 
      1      -5.4783      2.00000
      2      -1.4323      2.00000
      3       0.8293      2.00000
      4       2.7219      2.00000
      5      19.2602      0.00000
      6      20.1044      0.00000
      7      21.9066      0.00000
      8      25.4034      0.00000

 k-point  1522 :      -0.3590    0.4103    0.2051
  band No.  band energies     occupation 
      1      -5.0181      2.00000
      2      -1.7870      2.00000
      3       0.6676      2.00000
      4       2.4796      2.00000
      5      19.6471      0.00000
      6      20.2734      0.00000
      7      22.0333      0.00000
      8      24.9375      0.00000

 k-point  1523 :      -0.3333    0.4103    0.2051
  band No.  band energies     occupation 
      1      -4.6046      2.00000
      2      -2.1460      2.00000
      3       0.5842      2.00000
      4       2.3056      2.00000
      5      19.7397      0.00000
      6      20.5829      0.00000
      7      22.3566      0.00000
      8      24.3117      0.00000

 k-point  1524 :      -0.3077    0.4103    0.2051
  band No.  band energies     occupation 
      1      -4.3280      2.00000
      2      -2.4008      2.00000
      3       0.5513      2.00000
      4       2.2140      2.00000
      5      19.7517      0.00000
      6      20.7549      0.00000
      7      22.8950      0.00000
      8      23.6252      0.00000

 k-point  1525 :      -0.3590    0.4359    0.2051
  band No.  band energies     occupation 
      1      -4.8199      2.00000
      2      -1.8803      2.00000
      3       0.8024      2.00000
      4       2.1351      2.00000
      5      19.3487      0.00000
      6      20.0796      0.00000
      7      22.2195      0.00000
      8      25.0472      0.00000

 k-point  1526 :      -0.3333    0.4359    0.2051
  band No.  band energies     occupation 
      1      -4.3892      2.00000
      2      -2.1953      2.00000
      3       0.6701      2.00000
      4       1.9254      2.00000
      5      19.7134      0.00000
      6      20.4642      0.00000
      7      22.2036      0.00000
      8      24.4126      0.00000

 k-point  1527 :      -0.3077    0.4359    0.2051
  band No.  band energies     occupation 
      1      -4.0552      2.00000
      2      -2.4626      2.00000
      3       0.5683      2.00000
      4       1.8294      2.00000
      5      19.8396      0.00000
      6      20.9419      0.00000
      7      22.3568      0.00000
      8      23.7089      0.00000

 k-point  1528 :      -0.2821    0.4359    0.2051
  band No.  band energies     occupation 
      1      -3.9679      2.00000
      2      -2.5305      2.00000
      3       0.4930      2.00000
      4       1.8530      2.00000
      5      19.9279      0.00000
      6      21.0936      0.00000
      7      22.7725      0.00000
      8      23.0934      0.00000

 k-point  1529 :      -0.2564    0.4359    0.2051
  band No.  band energies     occupation 
      1      -4.1911      2.00000
      2      -2.3402      2.00000
      3       0.4639      2.00000
      4       1.9828      2.00000
      5      20.0206      0.00000
      6      20.8691      0.00000
      7      22.4549      0.00000
      8      23.5785      0.00000

 k-point  1530 :      -0.2308    0.4359    0.2051
  band No.  band energies     occupation 
      1      -4.5768      2.00000
      2      -2.0523      2.00000
      3       0.5127      2.00000
      4       2.1980      2.00000
      5      20.1104      0.00000
      6      20.3648      0.00000
      7      22.1634      0.00000
      8      24.3005      0.00000

 k-point  1531 :      -0.3333    0.4615    0.2051
  band No.  band energies     occupation 
      1      -4.1645      2.00000
      2      -2.3762      2.00000
      3       0.8586      2.00000
      4       1.6458      2.00000
      5      19.4646      0.00000
      6      19.9409      0.00000
      7      22.7197      0.00000
      8      24.5255      0.00000

 k-point  1532 :      -0.3077    0.4615    0.2051
  band No.  band energies     occupation 
      1      -3.7876      2.00000
      2      -2.6470      2.00000
      3       0.7445      2.00000
      4       1.4994      2.00000
      5      19.7642      0.00000
      6      20.5133      0.00000
      7      22.6190      0.00000
      8      23.8100      0.00000

 k-point  1533 :      -0.2821    0.4615    0.2051
  band No.  band energies     occupation 
      1      -3.6281      2.00000
      2      -2.7584      2.00000
      3       0.5898      2.00000
      4       1.5452      2.00000
      5      19.8783      0.00000
      6      21.1680      0.00000
      7      22.5887      0.00000
      8      23.1289      0.00000

 k-point  1534 :      -0.2564    0.4615    0.2051
  band No.  band energies     occupation 
      1      -3.8269      2.00000
      2      -2.5859      2.00000
      3       0.4750      2.00000
      4       1.7218      2.00000
      5      19.9759      0.00000
      6      21.3055      0.00000
      7      22.6538      0.00000
      8      22.9027      0.00000

 k-point  1535 :      -0.3077    0.4872    0.2051
  band No.  band energies     occupation 
      1      -3.5278      2.00000
      2      -2.9270      2.00000
      3       1.0104      2.00000
      4       1.2701      2.00000
      5      19.6070      0.00000
      6      19.7707      0.00000
      7      23.3087      0.00000
      8      23.9265      0.00000

 k-point  1536 :      -0.2821    0.4872    0.2051
  band No.  band energies     occupation 
      1      -3.3493      2.00000
      2      -3.0320      2.00000
      3       0.8158      2.00000
      4       1.3069      2.00000
      5      19.7844      0.00000
      6      20.5139      0.00000
      7      23.0950      0.00000
      8      23.2797      0.00000

 k-point  1537 :      -0.3077    0.4615    0.2308
  band No.  band energies     occupation 
      1      -3.9812      2.00000
      2      -2.4573      2.00000
      3       0.6221      2.00000
      4       1.6378      2.00000
      5      20.4289      0.00000
      6      20.4535      0.00000
      7      22.2203      0.00000
      8      23.6819      0.00000

 k-point  1538 :      -0.2821    0.4615    0.2308
  band No.  band energies     occupation 
      1      -3.6785      2.00000
      2      -2.6873      2.00000
      3       0.6212      2.00000
      4       1.4698      2.00000
      5      20.4194      0.00000
      6      20.9755      0.00000
      7      22.3912      0.00000
      8      22.9833      0.00000

 k-point  1539 :      -0.2821    0.4872    0.2308
  band No.  band energies     occupation 
      1      -3.4212      2.00000
      2      -2.9114      2.00000
      3       0.8416      2.00000
      4       1.1806      2.00000
      5      20.5316      0.00000
      6      20.5527      0.00000
      7      22.5439      0.00000
      8      23.0684      0.00000

 k-point  1540 :      -0.2564    0.4872    0.2308
  band No.  band energies     occupation 
      1      -3.3589      2.00000
      2      -2.9473      2.00000
      3       0.7734      2.00000
      4       1.1938      2.00000
      5      20.5644      0.00000
      6      21.0547      0.00000
      7      22.5274      0.00000
      8      22.5690      0.00000


--------------------------------------------------------------------------------------------------------


 soft charge-density along one line, spin component           1
         0         1         2         3         4         5         6         7         8         9
 total charge-density along one line
 
 pseudopotential strength for first ion, spin component:           1
  9.618  12.770  -0.000   0.000   0.000   0.000  -0.000  -0.000
 12.770  16.954  -0.000   0.000   0.000   0.000  -0.000  -0.000
 -0.000  -0.000  -3.635   0.000   0.000   7.056  -0.000  -0.000
  0.000   0.000   0.000  -3.635   0.000  -0.000   7.056  -0.000
  0.000   0.000   0.000   0.000  -3.635  -0.000  -0.000   7.056
  0.000   0.000   7.056  -0.000  -0.000 -15.929   0.000   0.000
 -0.000  -0.000  -0.000   7.056  -0.000   0.000 -15.929   0.000
 -0.000  -0.000  -0.000  -0.000   7.056   0.000   0.000 -15.929
 total augmentation occupancy for first ion, spin component:           1
  8.275  -3.767   0.000   0.000   0.000   0.000   0.000   0.000
 -3.767   1.793   0.000   0.000   0.000   0.000  -0.000  -0.000
  0.000   0.000   1.592  -0.000   0.000   0.146   0.000   0.000
  0.000   0.000   0.000   1.592  -0.000   0.000   0.146  -0.000
  0.000  -0.000   0.000   0.000   1.592  -0.000   0.000   0.146
  0.000  -0.000   0.146   0.000   0.000   0.015  -0.000   0.000
  0.000  -0.000  -0.000   0.146  -0.000   0.000   0.015   0.000
  0.000   0.000   0.000   0.000   0.146   0.000  -0.000   0.015


------------------------ aborting loop because EDIFF is reached ----------------------------------------


 


 total charge     
 
# of ion       s       p       d       tot
------------------------------------------
    1        0.843   1.734   0.000   2.577
    2        0.843   1.734   0.000   2.577
--------------------------------------------------
tot          1.685   3.468   0.000   5.154
 
    CHARGE:  cpu time    0.0719: real time    0.0719
    FORLOC:  cpu time    0.0002: real time    0.0002
    FORNL :  cpu time    0.1247: real time    0.1247
    STRESS:  cpu time   13.0469: real time   13.0554
    FORCOR:  cpu time    0.0158: real time    0.0159
    FORHAR:  cpu time    0.0009: real time    0.0009
    MIXING:  cpu time    0.0010: real time    0.0010
    OFIELD:  cpu time    0.0000: real time    0.0000

  FORCE on cell =-STRESS in cart. coord.  units (eV):
  Direction    XX          YY          ZZ          XY          YZ          ZX
  --------------------------------------------------------------------------------------
  Alpha Z    28.82679    28.82679    28.82679
  Ewald    -115.80156  -115.80156  -115.80156     0.00000     0.00000    -0.00000
  Hartree     8.79521     8.79521     8.79521     0.00000     0.00000     0.00000
  E(xc)     -30.46994   -30.74563   -30.48141     0.14680    -0.02771     0.06752
  Local     -11.94973   -11.94973   -11.94973    -0.00000    -0.00000    -0.00000
  n-local    -5.77703    -5.01317    -6.28498    -0.53682     0.07138    -0.03437
  augment    -0.88962    -0.88962    -0.88962     0.00000     0.00000     0.00000
  Kinetic   129.88065   123.30549   127.76885     5.16357    -1.37612     1.92916
  Fock        0.00000     0.00000     0.00000     0.00000     0.00000     0.00000
  -------------------------------------------------------------------------------------
  Total      -0.29130    -0.29130    -0.29130    -0.00000    -0.00000    -0.00000
  in kB     -40.94461   -40.94461   -40.94461    -0.00000    -0.00000    -0.00000
  external pressure =      -40.94 kB  Pullay stress =        0.00 kB


 VOLUME and BASIS-vectors are now :
 -----------------------------------------------------------------------------
  energy-cutoff  :      800.00
  volume of cell :       11.40
      direct lattice vectors                 reciprocal lattice vectors
     0.000000000  1.786246058  1.786246058    -0.279916643  0.279916643  0.279916643
     1.786246058  0.000000000  1.786246058     0.279916643 -0.279916643  0.279916643
     1.786246058  1.786246058  0.000000000     0.279916643  0.279916643 -0.279916643

  length of vectors
     2.526133401  2.526133401  2.526133401     0.484829847  0.484829847  0.484829847


 FORCES acting on ions
    electron-ion (+dipol)            ewald-force                    non-local-force                 convergence-correction
 -----------------------------------------------------------------------------------------------
   0.108E-07 0.108E-07 0.846E-08   -.899E-14 -.504E-14 -.456E-14   -.187E-15 -.180E-15 -.173E-15   0.989E-09 0.989E-09 0.989E-09
   -.108E-07 -.108E-07 -.846E-08   0.842E-14 0.506E-14 0.445E-14   0.111E-15 0.180E-15 0.971E-16   -.989E-09 -.989E-09 -.989E-09
 -----------------------------------------------------------------------------------------------
   0.185E-12 0.414E-12 0.162E-12   -.570E-15 0.113E-16 -.113E-15   -.763E-16 0.000E+00 -.763E-16   0.193E-15 -.193E-14 -.661E-15
 
 
 POSITION                                       TOTAL-FORCE (eV/Angst)
 -----------------------------------------------------------------------------------
      3.12593      3.12593      3.12593         0.000000     -0.000000      0.000000
      0.44656      0.44656      0.44656        -0.000000      0.000000     -0.000000
 -----------------------------------------------------------------------------------
    total drift:                                0.000000      0.000000      0.000000


--------------------------------------------------------------------------------------------------------



  FREE ENERGIE OF THE ION-ELECTRON SYSTEM (eV)
  ---------------------------------------------------
  free  energy   TOTEN  =       -19.67414994 eV

  energy  without entropy=      -19.67414994  energy(sigma->0) =      -19.67414994
 


--------------------------------------------------------------------------------------------------------


    POTLOK:  cpu time    0.3755: real time    0.3756


--------------------------------------------------------------------------------------------------------


     LOOP+:  cpu time   93.2684: real time   93.3474
    4ORBIT:  cpu time    0.0000: real time    0.0000
 


 total charge     
 
# of ion       s       p       d       tot
------------------------------------------
    1        0.843   1.734   0.000   2.577
    2        0.843   1.734   0.000   2.577
--------------------------------------------------
tot          1.685   3.468   0.000   5.154
 
 BZINTS: Fermi energy:    9.637878;    8.000000 electrons
         Band energy: 0.119713E+01;  BLOECHL correction:   -0.000000

 total amount of memory used by VASP MPI-rank0    44455. kBytes
=======================================================================

   base      :      30000. kBytes
   nonl-proj :       6112. kBytes
   fftplans  :        918. kBytes
   grid      :        523. kBytes
   one-center:          3. kBytes
   wavefun   :       6899. kBytes
 
  
  
 General timing and accounting informations for this job:
 ========================================================
  
                  Total CPU time used (sec):       97.848
                            User time (sec):       97.493
                          System time (sec):        0.355
                         Elapsed time (sec):       98.265
  
                   Maximum memory used (kb):      105592.
                   Average memory used (kb):           0.
  
                          Minor page faults:        38939
                          Major page faults:            9
                 Voluntary context switches:         1522
