 vasp.6.1.2 22Jul20 (build Mar 11 2021 17:42:27) complex                        
  
 executed on             LinuxIFC date 2021.03.19  16:28:17
 running on   40 total cores
 distrk:  each k-point on   20 cores,    2 groups
 distr:  one band on NCORE=  10 cores,    2 groups


--------------------------------------------------------------------------------------------------------


 INCAR:
 POTCAR:    PAW_PBE C 08Apr2002                   
 POTCAR:    PAW_PBE C 08Apr2002                   
   VRHFIN =C: s2p2                                                                                  
   LEXCH  = PE                                                                                      
   EATOM  =   147.1560 eV,   10.8157 Ry                                                             
                                                                                                    
   TITEL  = PAW_PBE C 08Apr2002                                                                     
   LULTRA =        F    use ultrasoft PP ?                                                          
   IUNSCR =        1    unscreen: 0-lin 1-nonlin 2-no                                               
   RPACOR =    1.200    partial core radius                                                         
   POMASS =   12.011; ZVAL   =    4.000    mass and valenz                                          
   RCORE  =    1.500    outmost cutoff radius                                                       
   RWIGS  =    1.630; RWIGS  =    0.863    wigner-seitz radius (au A)                               
   ENMAX  =  400.000; ENMIN  =  300.000 eV                                                          
   ICORE  =        2    local potential                                                             
   LCOR   =        T    correct aug charges                                                         
   LPAW   =        T    paw PP                                                                      
   EAUG   =  644.873                                                                                
   DEXC   =    0.000                                                                                
   RMAX   =    1.529    core radius for proj-oper                                                   
   RAUG   =    1.300    factor for augmentation sphere                                              
   RDEP   =    1.501    radius for radial grids                                                     
   RDEPT  =    1.300    core radius for aug-charge                                                  
                                                                                                    
   Atomic configuration                                                                             
    4 entries                                                                                       
     n  l   j            E        occ.                                                              
     1  0  0.50      -273.3789   2.0000                                                             
     2  0  0.50       -13.7508   2.0000                                                             
     2  1  0.50        -5.2854   2.0000                                                             
     3  2  1.50        -5.4423   0.0000                                                             
   Description                                                                                      
     l       E           TYP  RCUT    TYP  RCUT                                                     
     0    -13.7508458     23  1.200                                                                 
     0     -8.2022199     23  1.200                                                                 
     1     -5.2854383     23  1.500                                                                 
     1     34.0145650     23  1.500                                                                 
     2     -5.4423304      7  1.500                                                                 
  local pseudopotential read in
  partial core-charges read in
  partial kinetic energy density read in
  atomic valenz-charges read in
  non local Contribution for L=           0  read in
    real space projection operators read in
  non local Contribution for L=           0  read in
    real space projection operators read in
  non local Contribution for L=           1  read in
    real space projection operators read in
  non local Contribution for L=           1  read in
    real space projection operators read in
    PAW grid and wavefunctions read in
 
   number of l-projection  operators is LMAX  =           4
   number of lm-projection operators is LMMAX =           8
 
  PAW_PBE C 08Apr2002                   :
 energy of atom  1       EATOM= -147.1560
 kinetic energy error for atom=    0.0016 (will be added to EATOM!!)
 
 
 POSCAR: carbon
  positions in direct lattice
  No initial velocities read in

 METAGGA = R2SCA    LMAXTAU =  6    LMIXTAU =  T

 exchange correlation table for  LEXCH =        8
   RHO(1)=    0.500       N(1)  =     2000
   RHO(2)=  100.500       N(2)  =     4000
 


--------------------------------------------------------------------------------------------------------


 ion  position               nearest neighbor table
   1  0.875  0.875  0.875-   2 1.43   2 1.43   2 1.43   2 1.43
   2  0.125  0.125  0.125-   1 1.43   1 1.43   1 1.43   1 1.43
 
  LATTYP: Found a face centered cubic cell.
 ALAT       =     3.3030000000
  
  Lattice vectors:
  
 A1 = (   0.0000000000,   1.6515000000,   1.6515000000)
 A2 = (   1.6515000000,   0.0000000000,   1.6515000000)
 A3 = (   1.6515000000,   1.6515000000,   0.0000000000)


Analysis of symmetry for initial positions (statically):
=====================================================================
 Subroutine PRICEL returns:
 Original cell was already a primitive cell.
 

 Routine SETGRP: Setting up the symmetry group for a 
 face centered cubic supercell.


 Subroutine GETGRP returns: Found 48 space group operations
 (whereof 12 operations were pure point group operations)
 out of a pool of 48 trial point group operations.


The static configuration has the point symmetry D_3d.
 The point group associated with its full space group is O_h .


Analysis of symmetry for dynamics (positions and initial velocities):
=====================================================================
 Subroutine PRICEL returns:
 Original cell was already a primitive cell.
 

 Routine SETGRP: Setting up the symmetry group for a 
 face centered cubic supercell.


 Subroutine GETGRP returns: Found 48 space group operations
 (whereof 12 operations were pure point group operations)
 out of a pool of 48 trial point group operations.


The dynamic configuration has the point symmetry D_3d.
 The point group associated with its full space group is O_h .


 Subroutine INISYM returns: Found 48 space group operations
 (whereof 12 operations are pure point group operations),
 and found     1 'primitive' translations


----------------------------------------------------------------------------------------

                                     Primitive cell                                     

  volume of cell :       9.0088

  direct lattice vectors                    reciprocal lattice vectors
     0.000000000  1.651500000  1.651500000    -0.302755071  0.302755071  0.302755071
     1.651500000  0.000000000  1.651500000     0.302755071 -0.302755071  0.302755071
     1.651500000  1.651500000  0.000000000     0.302755071  0.302755071 -0.302755071

  length of vectors
     2.335573698  2.335573698  2.335573698     0.524387165  0.524387165  0.524387165

  position of ions in fractional coordinates (direct lattice)
     0.875000000  0.875000000  0.875000000
     0.125000000  0.125000000  0.125000000

  ion indices of the primitive-cell ions
   primitive index   ion index
                 1           1
                 2           2

----------------------------------------------------------------------------------------

 
 

Automatic generation of k-mesh.
 generate k-points for:   42   42   42
Space group operators:
 irot       det(A)        alpha          n_x          n_y          n_z        tau_x        tau_y        tau_z
    1     1.000000     0.000000     1.000000     0.000000     0.000000     0.000000     0.000000     0.000000
    2    -1.000000     0.000000     1.000000     0.000000     0.000000     0.000000     0.000000     0.000000
    3     1.000000   120.000000    -0.577350    -0.577350    -0.577350     0.000000     0.000000     0.000000
    4    -1.000000   120.000000    -0.577350    -0.577350    -0.577350     0.000000     0.000000     0.000000
    5     1.000000   120.000000     0.577350     0.577350     0.577350     0.000000     0.000000     0.000000
    6    -1.000000   120.000000     0.577350     0.577350     0.577350     0.000000     0.000000     0.000000
    7     1.000000   180.000000     0.000000    -0.707107     0.707107     0.000000     0.000000     0.000000
    8    -1.000000   180.000000     0.000000    -0.707107     0.707107     0.000000     0.000000     0.000000
    9     1.000000   180.000000     0.707107    -0.707107     0.000000     0.000000     0.000000     0.000000
   10    -1.000000   180.000000     0.707107    -0.707107     0.000000     0.000000     0.000000     0.000000
   11     1.000000   180.000000     0.707107     0.000000    -0.707107     0.000000     0.000000     0.000000
   12    -1.000000   180.000000     0.707107     0.000000    -0.707107     0.000000     0.000000     0.000000
   13     1.000000    90.000000     0.000000     0.000000    -1.000000    -0.500000     0.000000     0.000000
   14    -1.000000    90.000000     0.000000     0.000000    -1.000000    -0.500000     0.000000     0.000000
   15     1.000000   180.000000     0.000000     0.707107     0.707107    -0.500000     0.000000     0.000000
   16    -1.000000   180.000000     0.000000     0.707107     0.707107    -0.500000     0.000000     0.000000
   17     1.000000    90.000000     0.000000     1.000000     0.000000    -0.500000     0.000000     0.000000
   18    -1.000000    90.000000     0.000000     1.000000     0.000000    -0.500000     0.000000     0.000000
   19     1.000000   180.000000     0.000000     0.000000     1.000000     0.000000     0.000000    -0.500000
   20    -1.000000   180.000000     0.000000     0.000000     1.000000     0.000000     0.000000    -0.500000
   21     1.000000   120.000000    -0.577350     0.577350     0.577350     0.000000     0.000000    -0.500000
   22    -1.000000   120.000000    -0.577350     0.577350     0.577350     0.000000     0.000000    -0.500000
   23     1.000000   120.000000    -0.577350     0.577350    -0.577350     0.000000     0.000000    -0.500000
   24    -1.000000   120.000000    -0.577350     0.577350    -0.577350     0.000000     0.000000    -0.500000
   25     1.000000    90.000000     0.000000     0.000000     1.000000     0.000000    -0.500000     0.000000
   26    -1.000000    90.000000     0.000000     0.000000     1.000000     0.000000    -0.500000     0.000000
   27     1.000000    90.000000    -1.000000     0.000000     0.000000     0.000000    -0.500000     0.000000
   28    -1.000000    90.000000    -1.000000     0.000000     0.000000     0.000000    -0.500000     0.000000
   29     1.000000   180.000000     0.707107     0.000000     0.707107     0.000000    -0.500000     0.000000
   30    -1.000000   180.000000     0.707107     0.000000     0.707107     0.000000    -0.500000     0.000000
   31     1.000000   120.000000     0.577350    -0.577350     0.577350    -0.500000     0.000000     0.000000
   32    -1.000000   120.000000     0.577350    -0.577350     0.577350    -0.500000     0.000000     0.000000
   33     1.000000   120.000000    -0.577350    -0.577350     0.577350    -0.500000     0.000000     0.000000
   34    -1.000000   120.000000    -0.577350    -0.577350     0.577350    -0.500000     0.000000     0.000000
   35     1.000000   180.000000     1.000000     0.000000     0.000000    -0.500000     0.000000     0.000000
   36    -1.000000   180.000000     1.000000     0.000000     0.000000    -0.500000     0.000000     0.000000
   37     1.000000    90.000000     0.000000    -1.000000     0.000000     0.000000     0.000000    -0.500000
   38    -1.000000    90.000000     0.000000    -1.000000     0.000000     0.000000     0.000000    -0.500000
   39     1.000000   180.000000     0.707107     0.707107     0.000000     0.000000     0.000000    -0.500000
   40    -1.000000   180.000000     0.707107     0.707107     0.000000     0.000000     0.000000    -0.500000
   41     1.000000    90.000000     1.000000     0.000000     0.000000     0.000000     0.000000    -0.500000
   42    -1.000000    90.000000     1.000000     0.000000     0.000000     0.000000     0.000000    -0.500000
   43     1.000000   120.000000     0.577350    -0.577350    -0.577350     0.000000    -0.500000     0.000000
   44    -1.000000   120.000000     0.577350    -0.577350    -0.577350     0.000000    -0.500000     0.000000
   45     1.000000   180.000000     0.000000     1.000000     0.000000     0.000000    -0.500000     0.000000
   46    -1.000000   180.000000     0.000000     1.000000     0.000000     0.000000    -0.500000     0.000000
   47     1.000000   120.000000     0.577350     0.577350    -0.577350     0.000000    -0.500000     0.000000
   48    -1.000000   120.000000     0.577350     0.577350    -0.577350     0.000000    -0.500000     0.000000
 TETIRR: Found   9692 inequivalent tetrahedra from   444528
 
 Subroutine IBZKPT returns following result:
 ===========================================
 
 Found   1903 irreducible k-points:
 
 Following reciprocal coordinates:
            Coordinates               Weight
  0.000000  0.000000  0.000000      1.000000
  0.023810  0.000000  0.000000      8.000000
  0.047619  0.000000  0.000000      8.000000
  0.071429  0.000000  0.000000      8.000000
  0.095238  0.000000  0.000000      8.000000
  0.119048  0.000000  0.000000      8.000000
  0.142857  0.000000  0.000000      8.000000
  0.166667  0.000000  0.000000      8.000000
  0.190476  0.000000  0.000000      8.000000
  0.214286  0.000000  0.000000      8.000000
  0.238095  0.000000  0.000000      8.000000
  0.261905  0.000000  0.000000      8.000000
  0.285714  0.000000  0.000000      8.000000
  0.309524  0.000000  0.000000      8.000000
  0.333333  0.000000  0.000000      8.000000
  0.357143  0.000000  0.000000      8.000000
  0.380952  0.000000  0.000000      8.000000
  0.404762  0.000000  0.000000      8.000000
  0.428571  0.000000  0.000000      8.000000
  0.452381  0.000000  0.000000      8.000000
  0.476190  0.000000  0.000000      8.000000
  0.500000  0.000000  0.000000      4.000000
  0.023810  0.023810  0.000000      6.000000
  0.047619  0.023810  0.000000     24.000000
  0.071429  0.023810  0.000000     24.000000
  0.095238  0.023810  0.000000     24.000000
  0.119048  0.023810  0.000000     24.000000
  0.142857  0.023810  0.000000     24.000000
  0.166667  0.023810  0.000000     24.000000
  0.190476  0.023810  0.000000     24.000000
  0.214286  0.023810  0.000000     24.000000
  0.238095  0.023810  0.000000     24.000000
  0.261905  0.023810  0.000000     24.000000
  0.285714  0.023810  0.000000     24.000000
  0.309524  0.023810  0.000000     24.000000
  0.333333  0.023810  0.000000     24.000000
  0.357143  0.023810  0.000000     24.000000
  0.380952  0.023810  0.000000     24.000000
  0.404762  0.023810  0.000000     24.000000
  0.428571  0.023810  0.000000     24.000000
  0.452381  0.023810  0.000000     24.000000
  0.476190  0.023810  0.000000     24.000000
  0.500000  0.023810  0.000000     24.000000
 -0.476190  0.023810  0.000000     24.000000
 -0.452381  0.023810  0.000000     24.000000
 -0.428571  0.023810  0.000000     24.000000
 -0.404762  0.023810  0.000000     24.000000
 -0.380952  0.023810  0.000000     24.000000
 -0.357143  0.023810  0.000000     24.000000
 -0.333333  0.023810  0.000000     24.000000
 -0.309524  0.023810  0.000000     24.000000
 -0.285714  0.023810  0.000000     24.000000
 -0.261905  0.023810  0.000000     24.000000
 -0.238095  0.023810  0.000000     24.000000
 -0.214286  0.023810  0.000000     24.000000
 -0.190476  0.023810  0.000000     24.000000
 -0.166667  0.023810  0.000000     24.000000
 -0.142857  0.023810  0.000000     24.000000
 -0.119048  0.023810  0.000000     24.000000
 -0.095238  0.023810  0.000000     24.000000
 -0.071429  0.023810  0.000000     24.000000
 -0.047619  0.023810  0.000000     24.000000
 -0.023810  0.023810  0.000000     12.000000
  0.047619  0.047619  0.000000      6.000000
  0.071429  0.047619  0.000000     24.000000
  0.095238  0.047619  0.000000     24.000000
  0.119048  0.047619  0.000000     24.000000
  0.142857  0.047619  0.000000     24.000000
  0.166667  0.047619  0.000000     24.000000
  0.190476  0.047619  0.000000     24.000000
  0.214286  0.047619  0.000000     24.000000
  0.238095  0.047619  0.000000     24.000000
  0.261905  0.047619  0.000000     24.000000
  0.285714  0.047619  0.000000     24.000000
  0.309524  0.047619  0.000000     24.000000
  0.333333  0.047619  0.000000     24.000000
  0.357143  0.047619  0.000000     24.000000
  0.380952  0.047619  0.000000     24.000000
  0.404762  0.047619  0.000000     24.000000
  0.428571  0.047619  0.000000     24.000000
  0.452381  0.047619  0.000000     24.000000
  0.476190  0.047619  0.000000     24.000000
  0.500000  0.047619  0.000000     24.000000
 -0.476190  0.047619  0.000000     24.000000
 -0.452381  0.047619  0.000000     24.000000
 -0.428571  0.047619  0.000000     24.000000
 -0.404762  0.047619  0.000000     24.000000
 -0.380952  0.047619  0.000000     24.000000
 -0.357143  0.047619  0.000000     24.000000
 -0.333333  0.047619  0.000000     24.000000
 -0.309524  0.047619  0.000000     24.000000
 -0.285714  0.047619  0.000000     24.000000
 -0.261905  0.047619  0.000000     24.000000
 -0.238095  0.047619  0.000000     24.000000
 -0.214286  0.047619  0.000000     24.000000
 -0.190476  0.047619  0.000000     24.000000
 -0.166667  0.047619  0.000000     24.000000
 -0.142857  0.047619  0.000000     24.000000
 -0.119048  0.047619  0.000000     24.000000
 -0.095238  0.047619  0.000000     24.000000
 -0.071429  0.047619  0.000000     24.000000
 -0.047619  0.047619  0.000000     12.000000
  0.071429  0.071429  0.000000      6.000000
  0.095238  0.071429  0.000000     24.000000
  0.119048  0.071429  0.000000     24.000000
  0.142857  0.071429  0.000000     24.000000
  0.166667  0.071429  0.000000     24.000000
  0.190476  0.071429  0.000000     24.000000
  0.214286  0.071429  0.000000     24.000000
  0.238095  0.071429  0.000000     24.000000
  0.261905  0.071429  0.000000     24.000000
  0.285714  0.071429  0.000000     24.000000
  0.309524  0.071429  0.000000     24.000000
  0.333333  0.071429  0.000000     24.000000
  0.357143  0.071429  0.000000     24.000000
  0.380952  0.071429  0.000000     24.000000
  0.404762  0.071429  0.000000     24.000000
  0.428571  0.071429  0.000000     24.000000
  0.452381  0.071429  0.000000     24.000000
  0.476190  0.071429  0.000000     24.000000
  0.500000  0.071429  0.000000     24.000000
 -0.476190  0.071429  0.000000     24.000000
 -0.452381  0.071429  0.000000     24.000000
 -0.428571  0.071429  0.000000     24.000000
 -0.404762  0.071429  0.000000     24.000000
 -0.380952  0.071429  0.000000     24.000000
 -0.357143  0.071429  0.000000     24.000000
 -0.333333  0.071429  0.000000     24.000000
 -0.309524  0.071429  0.000000     24.000000
 -0.285714  0.071429  0.000000     24.000000
 -0.261905  0.071429  0.000000     24.000000
 -0.238095  0.071429  0.000000     24.000000
 -0.214286  0.071429  0.000000     24.000000
 -0.190476  0.071429  0.000000     24.000000
 -0.166667  0.071429  0.000000     24.000000
 -0.142857  0.071429  0.000000     24.000000
 -0.119048  0.071429  0.000000     24.000000
 -0.095238  0.071429  0.000000     24.000000
 -0.071429  0.071429  0.000000     12.000000
  0.095238  0.095238  0.000000      6.000000
  0.119048  0.095238  0.000000     24.000000
  0.142857  0.095238  0.000000     24.000000
  0.166667  0.095238  0.000000     24.000000
  0.190476  0.095238  0.000000     24.000000
  0.214286  0.095238  0.000000     24.000000
  0.238095  0.095238  0.000000     24.000000
  0.261905  0.095238  0.000000     24.000000
  0.285714  0.095238  0.000000     24.000000
  0.309524  0.095238  0.000000     24.000000
  0.333333  0.095238  0.000000     24.000000
  0.357143  0.095238  0.000000     24.000000
  0.380952  0.095238  0.000000     24.000000
  0.404762  0.095238  0.000000     24.000000
  0.428571  0.095238  0.000000     24.000000
  0.452381  0.095238  0.000000     24.000000
  0.476190  0.095238  0.000000     24.000000
  0.500000  0.095238  0.000000     24.000000
 -0.476190  0.095238  0.000000     24.000000
 -0.452381  0.095238  0.000000     24.000000
 -0.428571  0.095238  0.000000     24.000000
 -0.404762  0.095238  0.000000     24.000000
 -0.380952  0.095238  0.000000     24.000000
 -0.357143  0.095238  0.000000     24.000000
 -0.333333  0.095238  0.000000     24.000000
 -0.309524  0.095238  0.000000     24.000000
 -0.285714  0.095238  0.000000     24.000000
 -0.261905  0.095238  0.000000     24.000000
 -0.238095  0.095238  0.000000     24.000000
 -0.214286  0.095238  0.000000     24.000000
 -0.190476  0.095238  0.000000     24.000000
 -0.166667  0.095238  0.000000     24.000000
 -0.142857  0.095238  0.000000     24.000000
 -0.119048  0.095238  0.000000     24.000000
 -0.095238  0.095238  0.000000     12.000000
  0.119048  0.119048  0.000000      6.000000
  0.142857  0.119048  0.000000     24.000000
  0.166667  0.119048  0.000000     24.000000
  0.190476  0.119048  0.000000     24.000000
  0.214286  0.119048  0.000000     24.000000
  0.238095  0.119048  0.000000     24.000000
  0.261905  0.119048  0.000000     24.000000
  0.285714  0.119048  0.000000     24.000000
  0.309524  0.119048  0.000000     24.000000
  0.333333  0.119048  0.000000     24.000000
  0.357143  0.119048  0.000000     24.000000
  0.380952  0.119048  0.000000     24.000000
  0.404762  0.119048  0.000000     24.000000
  0.428571  0.119048  0.000000     24.000000
  0.452381  0.119048  0.000000     24.000000
  0.476190  0.119048  0.000000     24.000000
  0.500000  0.119048  0.000000     24.000000
 -0.476190  0.119048  0.000000     24.000000
 -0.452381  0.119048  0.000000     24.000000
 -0.428571  0.119048  0.000000     24.000000
 -0.404762  0.119048  0.000000     24.000000
 -0.380952  0.119048  0.000000     24.000000
 -0.357143  0.119048  0.000000     24.000000
 -0.333333  0.119048  0.000000     24.000000
 -0.309524  0.119048  0.000000     24.000000
 -0.285714  0.119048  0.000000     24.000000
 -0.261905  0.119048  0.000000     24.000000
 -0.238095  0.119048  0.000000     24.000000
 -0.214286  0.119048  0.000000     24.000000
 -0.190476  0.119048  0.000000     24.000000
 -0.166667  0.119048  0.000000     24.000000
 -0.142857  0.119048  0.000000     24.000000
 -0.119048  0.119048  0.000000     12.000000
  0.142857  0.142857  0.000000      6.000000
  0.166667  0.142857  0.000000     24.000000
  0.190476  0.142857  0.000000     24.000000
  0.214286  0.142857  0.000000     24.000000
  0.238095  0.142857  0.000000     24.000000
  0.261905  0.142857  0.000000     24.000000
  0.285714  0.142857  0.000000     24.000000
  0.309524  0.142857  0.000000     24.000000
  0.333333  0.142857  0.000000     24.000000
  0.357143  0.142857  0.000000     24.000000
  0.380952  0.142857  0.000000     24.000000
  0.404762  0.142857  0.000000     24.000000
  0.428571  0.142857  0.000000     24.000000
  0.452381  0.142857  0.000000     24.000000
  0.476190  0.142857  0.000000     24.000000
  0.500000  0.142857  0.000000     24.000000
 -0.476190  0.142857  0.000000     24.000000
 -0.452381  0.142857  0.000000     24.000000
 -0.428571  0.142857  0.000000     24.000000
 -0.404762  0.142857  0.000000     24.000000
 -0.380952  0.142857  0.000000     24.000000
 -0.357143  0.142857  0.000000     24.000000
 -0.333333  0.142857  0.000000     24.000000
 -0.309524  0.142857  0.000000     24.000000
 -0.285714  0.142857  0.000000     24.000000
 -0.261905  0.142857  0.000000     24.000000
 -0.238095  0.142857  0.000000     24.000000
 -0.214286  0.142857  0.000000     24.000000
 -0.190476  0.142857  0.000000     24.000000
 -0.166667  0.142857  0.000000     24.000000
 -0.142857  0.142857  0.000000     12.000000
  0.166667  0.166667  0.000000      6.000000
  0.190476  0.166667  0.000000     24.000000
  0.214286  0.166667  0.000000     24.000000
  0.238095  0.166667  0.000000     24.000000
  0.261905  0.166667  0.000000     24.000000
  0.285714  0.166667  0.000000     24.000000
  0.309524  0.166667  0.000000     24.000000
  0.333333  0.166667  0.000000     24.000000
  0.357143  0.166667  0.000000     24.000000
  0.380952  0.166667  0.000000     24.000000
  0.404762  0.166667  0.000000     24.000000
  0.428571  0.166667  0.000000     24.000000
  0.452381  0.166667  0.000000     24.000000
  0.476190  0.166667  0.000000     24.000000
  0.500000  0.166667  0.000000     24.000000
 -0.476190  0.166667  0.000000     24.000000
 -0.452381  0.166667  0.000000     24.000000
 -0.428571  0.166667  0.000000     24.000000
 -0.404762  0.166667  0.000000     24.000000
 -0.380952  0.166667  0.000000     24.000000
 -0.357143  0.166667  0.000000     24.000000
 -0.333333  0.166667  0.000000     24.000000
 -0.309524  0.166667  0.000000     24.000000
 -0.285714  0.166667  0.000000     24.000000
 -0.261905  0.166667  0.000000     24.000000
 -0.238095  0.166667  0.000000     24.000000
 -0.214286  0.166667  0.000000     24.000000
 -0.190476  0.166667  0.000000     24.000000
 -0.166667  0.166667  0.000000     12.000000
  0.190476  0.190476  0.000000      6.000000
  0.214286  0.190476  0.000000     24.000000
  0.238095  0.190476  0.000000     24.000000
  0.261905  0.190476  0.000000     24.000000
  0.285714  0.190476  0.000000     24.000000
  0.309524  0.190476  0.000000     24.000000
  0.333333  0.190476  0.000000     24.000000
  0.357143  0.190476  0.000000     24.000000
  0.380952  0.190476  0.000000     24.000000
  0.404762  0.190476  0.000000     24.000000
  0.428571  0.190476  0.000000     24.000000
  0.452381  0.190476  0.000000     24.000000
  0.476190  0.190476  0.000000     24.000000
  0.500000  0.190476  0.000000     24.000000
 -0.476190  0.190476  0.000000     24.000000
 -0.452381  0.190476  0.000000     24.000000
 -0.428571  0.190476  0.000000     24.000000
 -0.404762  0.190476  0.000000     24.000000
 -0.380952  0.190476  0.000000     24.000000
 -0.357143  0.190476  0.000000     24.000000
 -0.333333  0.190476  0.000000     24.000000
 -0.309524  0.190476  0.000000     24.000000
 -0.285714  0.190476  0.000000     24.000000
 -0.261905  0.190476  0.000000     24.000000
 -0.238095  0.190476  0.000000     24.000000
 -0.214286  0.190476  0.000000     24.000000
 -0.190476  0.190476  0.000000     12.000000
  0.214286  0.214286  0.000000      6.000000
  0.238095  0.214286  0.000000     24.000000
  0.261905  0.214286  0.000000     24.000000
  0.285714  0.214286  0.000000     24.000000
  0.309524  0.214286  0.000000     24.000000
  0.333333  0.214286  0.000000     24.000000
  0.357143  0.214286  0.000000     24.000000
  0.380952  0.214286  0.000000     24.000000
  0.404762  0.214286  0.000000     24.000000
  0.428571  0.214286  0.000000     24.000000
  0.452381  0.214286  0.000000     24.000000
  0.476190  0.214286  0.000000     24.000000
  0.500000  0.214286  0.000000     24.000000
 -0.476190  0.214286  0.000000     24.000000
 -0.452381  0.214286  0.000000     24.000000
 -0.428571  0.214286  0.000000     24.000000
 -0.404762  0.214286  0.000000     24.000000
 -0.380952  0.214286  0.000000     24.000000
 -0.357143  0.214286  0.000000     24.000000
 -0.333333  0.214286  0.000000     24.000000
 -0.309524  0.214286  0.000000     24.000000
 -0.285714  0.214286  0.000000     24.000000
 -0.261905  0.214286  0.000000     24.000000
 -0.238095  0.214286  0.000000     24.000000
 -0.214286  0.214286  0.000000     12.000000
  0.238095  0.238095  0.000000      6.000000
  0.261905  0.238095  0.000000     24.000000
  0.285714  0.238095  0.000000     24.000000
  0.309524  0.238095  0.000000     24.000000
  0.333333  0.238095  0.000000     24.000000
  0.357143  0.238095  0.000000     24.000000
  0.380952  0.238095  0.000000     24.000000
  0.404762  0.238095  0.000000     24.000000
  0.428571  0.238095  0.000000     24.000000
  0.452381  0.238095  0.000000     24.000000
  0.476190  0.238095  0.000000     24.000000
  0.500000  0.238095  0.000000     24.000000
 -0.476190  0.238095  0.000000     24.000000
 -0.452381  0.238095  0.000000     24.000000
 -0.428571  0.238095  0.000000     24.000000
 -0.404762  0.238095  0.000000     24.000000
 -0.380952  0.238095  0.000000     24.000000
 -0.357143  0.238095  0.000000     24.000000
 -0.333333  0.238095  0.000000     24.000000
 -0.309524  0.238095  0.000000     24.000000
 -0.285714  0.238095  0.000000     24.000000
 -0.261905  0.238095  0.000000     24.000000
 -0.238095  0.238095  0.000000     12.000000
  0.261905  0.261905  0.000000      6.000000
  0.285714  0.261905  0.000000     24.000000
  0.309524  0.261905  0.000000     24.000000
  0.333333  0.261905  0.000000     24.000000
  0.357143  0.261905  0.000000     24.000000
  0.380952  0.261905  0.000000     24.000000
  0.404762  0.261905  0.000000     24.000000
  0.428571  0.261905  0.000000     24.000000
  0.452381  0.261905  0.000000     24.000000
  0.476190  0.261905  0.000000     24.000000
  0.500000  0.261905  0.000000     24.000000
 -0.476190  0.261905  0.000000     24.000000
 -0.452381  0.261905  0.000000     24.000000
 -0.428571  0.261905  0.000000     24.000000
 -0.404762  0.261905  0.000000     24.000000
 -0.380952  0.261905  0.000000     24.000000
 -0.357143  0.261905  0.000000     24.000000
 -0.333333  0.261905  0.000000     24.000000
 -0.309524  0.261905  0.000000     24.000000
 -0.285714  0.261905  0.000000     24.000000
 -0.261905  0.261905  0.000000     12.000000
  0.285714  0.285714  0.000000      6.000000
  0.309524  0.285714  0.000000     24.000000
  0.333333  0.285714  0.000000     24.000000
  0.357143  0.285714  0.000000     24.000000
  0.380952  0.285714  0.000000     24.000000
  0.404762  0.285714  0.000000     24.000000
  0.428571  0.285714  0.000000     24.000000
  0.452381  0.285714  0.000000     24.000000
  0.476190  0.285714  0.000000     24.000000
  0.500000  0.285714  0.000000     24.000000
 -0.476190  0.285714  0.000000     24.000000
 -0.452381  0.285714  0.000000     24.000000
 -0.428571  0.285714  0.000000     24.000000
 -0.404762  0.285714  0.000000     24.000000
 -0.380952  0.285714  0.000000     24.000000
 -0.357143  0.285714  0.000000     24.000000
 -0.333333  0.285714  0.000000     24.000000
 -0.309524  0.285714  0.000000     24.000000
 -0.285714  0.285714  0.000000     12.000000
  0.309524  0.309524  0.000000      6.000000
  0.333333  0.309524  0.000000     24.000000
  0.357143  0.309524  0.000000     24.000000
  0.380952  0.309524  0.000000     24.000000
  0.404762  0.309524  0.000000     24.000000
  0.428571  0.309524  0.000000     24.000000
  0.452381  0.309524  0.000000     24.000000
  0.476190  0.309524  0.000000     24.000000
  0.500000  0.309524  0.000000     24.000000
 -0.476190  0.309524  0.000000     24.000000
 -0.452381  0.309524  0.000000     24.000000
 -0.428571  0.309524  0.000000     24.000000
 -0.404762  0.309524  0.000000     24.000000
 -0.380952  0.309524  0.000000     24.000000
 -0.357143  0.309524  0.000000     24.000000
 -0.333333  0.309524  0.000000     24.000000
 -0.309524  0.309524  0.000000     12.000000
  0.333333  0.333333  0.000000      6.000000
  0.357143  0.333333  0.000000     24.000000
  0.380952  0.333333  0.000000     24.000000
  0.404762  0.333333  0.000000     24.000000
  0.428571  0.333333  0.000000     24.000000
  0.452381  0.333333  0.000000     24.000000
  0.476190  0.333333  0.000000     24.000000
  0.500000  0.333333  0.000000     24.000000
 -0.476190  0.333333  0.000000     24.000000
 -0.452381  0.333333  0.000000     24.000000
 -0.428571  0.333333  0.000000     24.000000
 -0.404762  0.333333  0.000000     24.000000
 -0.380952  0.333333  0.000000     24.000000
 -0.357143  0.333333  0.000000     24.000000
 -0.333333  0.333333  0.000000     12.000000
  0.357143  0.357143  0.000000      6.000000
  0.380952  0.357143  0.000000     24.000000
  0.404762  0.357143  0.000000     24.000000
  0.428571  0.357143  0.000000     24.000000
  0.452381  0.357143  0.000000     24.000000
  0.476190  0.357143  0.000000     24.000000
  0.500000  0.357143  0.000000     24.000000
 -0.476190  0.357143  0.000000     24.000000
 -0.452381  0.357143  0.000000     24.000000
 -0.428571  0.357143  0.000000     24.000000
 -0.404762  0.357143  0.000000     24.000000
 -0.380952  0.357143  0.000000     24.000000
 -0.357143  0.357143  0.000000     12.000000
  0.380952  0.380952  0.000000      6.000000
  0.404762  0.380952  0.000000     24.000000
  0.428571  0.380952  0.000000     24.000000
  0.452381  0.380952  0.000000     24.000000
  0.476190  0.380952  0.000000     24.000000
  0.500000  0.380952  0.000000     24.000000
 -0.476190  0.380952  0.000000     24.000000
 -0.452381  0.380952  0.000000     24.000000
 -0.428571  0.380952  0.000000     24.000000
 -0.404762  0.380952  0.000000     24.000000
 -0.380952  0.380952  0.000000     12.000000
  0.404762  0.404762  0.000000      6.000000
  0.428571  0.404762  0.000000     24.000000
  0.452381  0.404762  0.000000     24.000000
  0.476190  0.404762  0.000000     24.000000
  0.500000  0.404762  0.000000     24.000000
 -0.476190  0.404762  0.000000     24.000000
 -0.452381  0.404762  0.000000     24.000000
 -0.428571  0.404762  0.000000     24.000000
 -0.404762  0.404762  0.000000     12.000000
  0.428571  0.428571  0.000000      6.000000
  0.452381  0.428571  0.000000     24.000000
  0.476190  0.428571  0.000000     24.000000
  0.500000  0.428571  0.000000     24.000000
 -0.476190  0.428571  0.000000     24.000000
 -0.452381  0.428571  0.000000     24.000000
 -0.428571  0.428571  0.000000     12.000000
  0.452381  0.452381  0.000000      6.000000
  0.476190  0.452381  0.000000     24.000000
  0.500000  0.452381  0.000000     24.000000
 -0.476190  0.452381  0.000000     24.000000
 -0.452381  0.452381  0.000000     12.000000
  0.476190  0.476190  0.000000      6.000000
  0.500000  0.476190  0.000000     24.000000
 -0.476190  0.476190  0.000000     12.000000
  0.500000  0.500000  0.000000      3.000000
  0.071429  0.047619  0.023810     24.000000
  0.095238  0.047619  0.023810     48.000000
  0.119048  0.047619  0.023810     48.000000
  0.142857  0.047619  0.023810     48.000000
  0.166667  0.047619  0.023810     48.000000
  0.190476  0.047619  0.023810     48.000000
  0.214286  0.047619  0.023810     48.000000
  0.238095  0.047619  0.023810     48.000000
  0.261905  0.047619  0.023810     48.000000
  0.285714  0.047619  0.023810     48.000000
  0.309524  0.047619  0.023810     48.000000
  0.333333  0.047619  0.023810     48.000000
  0.357143  0.047619  0.023810     48.000000
  0.380952  0.047619  0.023810     48.000000
  0.404762  0.047619  0.023810     48.000000
  0.428571  0.047619  0.023810     48.000000
  0.452381  0.047619  0.023810     48.000000
  0.476190  0.047619  0.023810     48.000000
  0.500000  0.047619  0.023810     48.000000
 -0.476190  0.047619  0.023810     24.000000
  0.095238  0.071429  0.023810     24.000000
  0.119048  0.071429  0.023810     48.000000
  0.142857  0.071429  0.023810     48.000000
  0.166667  0.071429  0.023810     48.000000
  0.190476  0.071429  0.023810     48.000000
  0.214286  0.071429  0.023810     48.000000
  0.238095  0.071429  0.023810     48.000000
  0.261905  0.071429  0.023810     48.000000
  0.285714  0.071429  0.023810     48.000000
  0.309524  0.071429  0.023810     48.000000
  0.333333  0.071429  0.023810     48.000000
  0.357143  0.071429  0.023810     48.000000
  0.380952  0.071429  0.023810     48.000000
  0.404762  0.071429  0.023810     48.000000
  0.428571  0.071429  0.023810     48.000000
  0.452381  0.071429  0.023810     48.000000
  0.476190  0.071429  0.023810     48.000000
  0.500000  0.071429  0.023810     48.000000
 -0.476190  0.071429  0.023810     48.000000
 -0.452381  0.071429  0.023810     48.000000
 -0.428571  0.071429  0.023810     48.000000
 -0.404762  0.071429  0.023810     48.000000
 -0.380952  0.071429  0.023810     48.000000
 -0.357143  0.071429  0.023810     48.000000
 -0.333333  0.071429  0.023810     48.000000
 -0.309524  0.071429  0.023810     48.000000
 -0.285714  0.071429  0.023810     48.000000
 -0.261905  0.071429  0.023810     48.000000
 -0.238095  0.071429  0.023810     48.000000
 -0.214286  0.071429  0.023810     48.000000
 -0.190476  0.071429  0.023810     48.000000
 -0.166667  0.071429  0.023810     48.000000
 -0.142857  0.071429  0.023810     48.000000
 -0.119048  0.071429  0.023810     48.000000
 -0.095238  0.071429  0.023810     48.000000
 -0.071429  0.071429  0.023810     48.000000
 -0.047619  0.071429  0.023810     24.000000
  0.119048  0.095238  0.023810     24.000000
  0.142857  0.095238  0.023810     48.000000
  0.166667  0.095238  0.023810     48.000000
  0.190476  0.095238  0.023810     48.000000
  0.214286  0.095238  0.023810     48.000000
  0.238095  0.095238  0.023810     48.000000
  0.261905  0.095238  0.023810     48.000000
  0.285714  0.095238  0.023810     48.000000
  0.309524  0.095238  0.023810     48.000000
  0.333333  0.095238  0.023810     48.000000
  0.357143  0.095238  0.023810     48.000000
  0.380952  0.095238  0.023810     48.000000
  0.404762  0.095238  0.023810     48.000000
  0.428571  0.095238  0.023810     48.000000
  0.452381  0.095238  0.023810     48.000000
  0.476190  0.095238  0.023810     48.000000
  0.500000  0.095238  0.023810     48.000000
 -0.476190  0.095238  0.023810     48.000000
 -0.452381  0.095238  0.023810     48.000000
 -0.428571  0.095238  0.023810     48.000000
 -0.404762  0.095238  0.023810     48.000000
 -0.380952  0.095238  0.023810     48.000000
 -0.357143  0.095238  0.023810     48.000000
 -0.333333  0.095238  0.023810     48.000000
 -0.309524  0.095238  0.023810     48.000000
 -0.285714  0.095238  0.023810     48.000000
 -0.261905  0.095238  0.023810     48.000000
 -0.238095  0.095238  0.023810     48.000000
 -0.214286  0.095238  0.023810     48.000000
 -0.190476  0.095238  0.023810     48.000000
 -0.166667  0.095238  0.023810     48.000000
 -0.142857  0.095238  0.023810     48.000000
 -0.119048  0.095238  0.023810     48.000000
 -0.095238  0.095238  0.023810     48.000000
 -0.071429  0.095238  0.023810     24.000000
  0.142857  0.119048  0.023810     24.000000
  0.166667  0.119048  0.023810     48.000000
  0.190476  0.119048  0.023810     48.000000
  0.214286  0.119048  0.023810     48.000000
  0.238095  0.119048  0.023810     48.000000
  0.261905  0.119048  0.023810     48.000000
  0.285714  0.119048  0.023810     48.000000
  0.309524  0.119048  0.023810     48.000000
  0.333333  0.119048  0.023810     48.000000
  0.357143  0.119048  0.023810     48.000000
  0.380952  0.119048  0.023810     48.000000
  0.404762  0.119048  0.023810     48.000000
  0.428571  0.119048  0.023810     48.000000
  0.452381  0.119048  0.023810     48.000000
  0.476190  0.119048  0.023810     48.000000
  0.500000  0.119048  0.023810     48.000000
 -0.476190  0.119048  0.023810     48.000000
 -0.452381  0.119048  0.023810     48.000000
 -0.428571  0.119048  0.023810     48.000000
 -0.404762  0.119048  0.023810     48.000000
 -0.380952  0.119048  0.023810     48.000000
 -0.357143  0.119048  0.023810     48.000000
 -0.333333  0.119048  0.023810     48.000000
 -0.309524  0.119048  0.023810     48.000000
 -0.285714  0.119048  0.023810     48.000000
 -0.261905  0.119048  0.023810     48.000000
 -0.238095  0.119048  0.023810     48.000000
 -0.214286  0.119048  0.023810     48.000000
 -0.190476  0.119048  0.023810     48.000000
 -0.166667  0.119048  0.023810     48.000000
 -0.142857  0.119048  0.023810     48.000000
 -0.119048  0.119048  0.023810     48.000000
 -0.095238  0.119048  0.023810     24.000000
  0.166667  0.142857  0.023810     24.000000
  0.190476  0.142857  0.023810     48.000000
  0.214286  0.142857  0.023810     48.000000
  0.238095  0.142857  0.023810     48.000000
  0.261905  0.142857  0.023810     48.000000
  0.285714  0.142857  0.023810     48.000000
  0.309524  0.142857  0.023810     48.000000
  0.333333  0.142857  0.023810     48.000000
  0.357143  0.142857  0.023810     48.000000
  0.380952  0.142857  0.023810     48.000000
  0.404762  0.142857  0.023810     48.000000
  0.428571  0.142857  0.023810     48.000000
  0.452381  0.142857  0.023810     48.000000
  0.476190  0.142857  0.023810     48.000000
  0.500000  0.142857  0.023810     48.000000
 -0.476190  0.142857  0.023810     48.000000
 -0.452381  0.142857  0.023810     48.000000
 -0.428571  0.142857  0.023810     48.000000
 -0.404762  0.142857  0.023810     48.000000
 -0.380952  0.142857  0.023810     48.000000
 -0.357143  0.142857  0.023810     48.000000
 -0.333333  0.142857  0.023810     48.000000
 -0.309524  0.142857  0.023810     48.000000
 -0.285714  0.142857  0.023810     48.000000
 -0.261905  0.142857  0.023810     48.000000
 -0.238095  0.142857  0.023810     48.000000
 -0.214286  0.142857  0.023810     48.000000
 -0.190476  0.142857  0.023810     48.000000
 -0.166667  0.142857  0.023810     48.000000
 -0.142857  0.142857  0.023810     48.000000
 -0.119048  0.142857  0.023810     24.000000
  0.190476  0.166667  0.023810     24.000000
  0.214286  0.166667  0.023810     48.000000
  0.238095  0.166667  0.023810     48.000000
  0.261905  0.166667  0.023810     48.000000
  0.285714  0.166667  0.023810     48.000000
  0.309524  0.166667  0.023810     48.000000
  0.333333  0.166667  0.023810     48.000000
  0.357143  0.166667  0.023810     48.000000
  0.380952  0.166667  0.023810     48.000000
  0.404762  0.166667  0.023810     48.000000
  0.428571  0.166667  0.023810     48.000000
  0.452381  0.166667  0.023810     48.000000
  0.476190  0.166667  0.023810     48.000000
  0.500000  0.166667  0.023810     48.000000
 -0.476190  0.166667  0.023810     48.000000
 -0.452381  0.166667  0.023810     48.000000
 -0.428571  0.166667  0.023810     48.000000
 -0.404762  0.166667  0.023810     48.000000
 -0.380952  0.166667  0.023810     48.000000
 -0.357143  0.166667  0.023810     48.000000
 -0.333333  0.166667  0.023810     48.000000
 -0.309524  0.166667  0.023810     48.000000
 -0.285714  0.166667  0.023810     48.000000
 -0.261905  0.166667  0.023810     48.000000
 -0.238095  0.166667  0.023810     48.000000
 -0.214286  0.166667  0.023810     48.000000
 -0.190476  0.166667  0.023810     48.000000
 -0.166667  0.166667  0.023810     48.000000
 -0.142857  0.166667  0.023810     24.000000
  0.214286  0.190476  0.023810     24.000000
  0.238095  0.190476  0.023810     48.000000
  0.261905  0.190476  0.023810     48.000000
  0.285714  0.190476  0.023810     48.000000
  0.309524  0.190476  0.023810     48.000000
  0.333333  0.190476  0.023810     48.000000
  0.357143  0.190476  0.023810     48.000000
  0.380952  0.190476  0.023810     48.000000
  0.404762  0.190476  0.023810     48.000000
  0.428571  0.190476  0.023810     48.000000
  0.452381  0.190476  0.023810     48.000000
  0.476190  0.190476  0.023810     48.000000
  0.500000  0.190476  0.023810     48.000000
 -0.476190  0.190476  0.023810     48.000000
 -0.452381  0.190476  0.023810     48.000000
 -0.428571  0.190476  0.023810     48.000000
 -0.404762  0.190476  0.023810     48.000000
 -0.380952  0.190476  0.023810     48.000000
 -0.357143  0.190476  0.023810     48.000000
 -0.333333  0.190476  0.023810     48.000000
 -0.309524  0.190476  0.023810     48.000000
 -0.285714  0.190476  0.023810     48.000000
 -0.261905  0.190476  0.023810     48.000000
 -0.238095  0.190476  0.023810     48.000000
 -0.214286  0.190476  0.023810     48.000000
 -0.190476  0.190476  0.023810     48.000000
 -0.166667  0.190476  0.023810     24.000000
  0.238095  0.214286  0.023810     24.000000
  0.261905  0.214286  0.023810     48.000000
  0.285714  0.214286  0.023810     48.000000
  0.309524  0.214286  0.023810     48.000000
  0.333333  0.214286  0.023810     48.000000
  0.357143  0.214286  0.023810     48.000000
  0.380952  0.214286  0.023810     48.000000
  0.404762  0.214286  0.023810     48.000000
  0.428571  0.214286  0.023810     48.000000
  0.452381  0.214286  0.023810     48.000000
  0.476190  0.214286  0.023810     48.000000
  0.500000  0.214286  0.023810     48.000000
 -0.476190  0.214286  0.023810     48.000000
 -0.452381  0.214286  0.023810     48.000000
 -0.428571  0.214286  0.023810     48.000000
 -0.404762  0.214286  0.023810     48.000000
 -0.380952  0.214286  0.023810     48.000000
 -0.357143  0.214286  0.023810     48.000000
 -0.333333  0.214286  0.023810     48.000000
 -0.309524  0.214286  0.023810     48.000000
 -0.285714  0.214286  0.023810     48.000000
 -0.261905  0.214286  0.023810     48.000000
 -0.238095  0.214286  0.023810     48.000000
 -0.214286  0.214286  0.023810     48.000000
 -0.190476  0.214286  0.023810     24.000000
  0.261905  0.238095  0.023810     24.000000
  0.285714  0.238095  0.023810     48.000000
  0.309524  0.238095  0.023810     48.000000
  0.333333  0.238095  0.023810     48.000000
  0.357143  0.238095  0.023810     48.000000
  0.380952  0.238095  0.023810     48.000000
  0.404762  0.238095  0.023810     48.000000
  0.428571  0.238095  0.023810     48.000000
  0.452381  0.238095  0.023810     48.000000
  0.476190  0.238095  0.023810     48.000000
  0.500000  0.238095  0.023810     48.000000
 -0.476190  0.238095  0.023810     48.000000
 -0.452381  0.238095  0.023810     48.000000
 -0.428571  0.238095  0.023810     48.000000
 -0.404762  0.238095  0.023810     48.000000
 -0.380952  0.238095  0.023810     48.000000
 -0.357143  0.238095  0.023810     48.000000
 -0.333333  0.238095  0.023810     48.000000
 -0.309524  0.238095  0.023810     48.000000
 -0.285714  0.238095  0.023810     48.000000
 -0.261905  0.238095  0.023810     48.000000
 -0.238095  0.238095  0.023810     48.000000
 -0.214286  0.238095  0.023810     24.000000
  0.285714  0.261905  0.023810     24.000000
  0.309524  0.261905  0.023810     48.000000
  0.333333  0.261905  0.023810     48.000000
  0.357143  0.261905  0.023810     48.000000
  0.380952  0.261905  0.023810     48.000000
  0.404762  0.261905  0.023810     48.000000
  0.428571  0.261905  0.023810     48.000000
  0.452381  0.261905  0.023810     48.000000
  0.476190  0.261905  0.023810     48.000000
  0.500000  0.261905  0.023810     48.000000
 -0.476190  0.261905  0.023810     48.000000
 -0.452381  0.261905  0.023810     48.000000
 -0.428571  0.261905  0.023810     48.000000
 -0.404762  0.261905  0.023810     48.000000
 -0.380952  0.261905  0.023810     48.000000
 -0.357143  0.261905  0.023810     48.000000
 -0.333333  0.261905  0.023810     48.000000
 -0.309524  0.261905  0.023810     48.000000
 -0.285714  0.261905  0.023810     48.000000
 -0.261905  0.261905  0.023810     48.000000
 -0.238095  0.261905  0.023810     24.000000
  0.309524  0.285714  0.023810     24.000000
  0.333333  0.285714  0.023810     48.000000
  0.357143  0.285714  0.023810     48.000000
  0.380952  0.285714  0.023810     48.000000
  0.404762  0.285714  0.023810     48.000000
  0.428571  0.285714  0.023810     48.000000
  0.452381  0.285714  0.023810     48.000000
  0.476190  0.285714  0.023810     48.000000
  0.500000  0.285714  0.023810     48.000000
 -0.476190  0.285714  0.023810     48.000000
 -0.452381  0.285714  0.023810     48.000000
 -0.428571  0.285714  0.023810     48.000000
 -0.404762  0.285714  0.023810     48.000000
 -0.380952  0.285714  0.023810     48.000000
 -0.357143  0.285714  0.023810     48.000000
 -0.333333  0.285714  0.023810     48.000000
 -0.309524  0.285714  0.023810     48.000000
 -0.285714  0.285714  0.023810     48.000000
 -0.261905  0.285714  0.023810     24.000000
  0.333333  0.309524  0.023810     24.000000
  0.357143  0.309524  0.023810     48.000000
  0.380952  0.309524  0.023810     48.000000
  0.404762  0.309524  0.023810     48.000000
  0.428571  0.309524  0.023810     48.000000
  0.452381  0.309524  0.023810     48.000000
  0.476190  0.309524  0.023810     48.000000
  0.500000  0.309524  0.023810     48.000000
 -0.476190  0.309524  0.023810     48.000000
 -0.452381  0.309524  0.023810     48.000000
 -0.428571  0.309524  0.023810     48.000000
 -0.404762  0.309524  0.023810     48.000000
 -0.380952  0.309524  0.023810     48.000000
 -0.357143  0.309524  0.023810     48.000000
 -0.333333  0.309524  0.023810     48.000000
 -0.309524  0.309524  0.023810     48.000000
 -0.285714  0.309524  0.023810     24.000000
  0.357143  0.333333  0.023810     24.000000
  0.380952  0.333333  0.023810     48.000000
  0.404762  0.333333  0.023810     48.000000
  0.428571  0.333333  0.023810     48.000000
  0.452381  0.333333  0.023810     48.000000
  0.476190  0.333333  0.023810     48.000000
  0.500000  0.333333  0.023810     48.000000
 -0.476190  0.333333  0.023810     48.000000
 -0.452381  0.333333  0.023810     48.000000
 -0.428571  0.333333  0.023810     48.000000
 -0.404762  0.333333  0.023810     48.000000
 -0.380952  0.333333  0.023810     48.000000
 -0.357143  0.333333  0.023810     48.000000
 -0.333333  0.333333  0.023810     48.000000
 -0.309524  0.333333  0.023810     24.000000
  0.380952  0.357143  0.023810     24.000000
  0.404762  0.357143  0.023810     48.000000
  0.428571  0.357143  0.023810     48.000000
  0.452381  0.357143  0.023810     48.000000
  0.476190  0.357143  0.023810     48.000000
  0.500000  0.357143  0.023810     48.000000
 -0.476190  0.357143  0.023810     48.000000
 -0.452381  0.357143  0.023810     48.000000
 -0.428571  0.357143  0.023810     48.000000
 -0.404762  0.357143  0.023810     48.000000
 -0.380952  0.357143  0.023810     48.000000
 -0.357143  0.357143  0.023810     48.000000
 -0.333333  0.357143  0.023810     24.000000
  0.404762  0.380952  0.023810     24.000000
  0.428571  0.380952  0.023810     48.000000
  0.452381  0.380952  0.023810     48.000000
  0.476190  0.380952  0.023810     48.000000
  0.500000  0.380952  0.023810     48.000000
 -0.476190  0.380952  0.023810     48.000000
 -0.452381  0.380952  0.023810     48.000000
 -0.428571  0.380952  0.023810     48.000000
 -0.404762  0.380952  0.023810     48.000000
 -0.380952  0.380952  0.023810     48.000000
 -0.357143  0.380952  0.023810     24.000000
  0.428571  0.404762  0.023810     24.000000
  0.452381  0.404762  0.023810     48.000000
  0.476190  0.404762  0.023810     48.000000
  0.500000  0.404762  0.023810     48.000000
 -0.476190  0.404762  0.023810     48.000000
 -0.452381  0.404762  0.023810     48.000000
 -0.428571  0.404762  0.023810     48.000000
 -0.404762  0.404762  0.023810     48.000000
 -0.380952  0.404762  0.023810     24.000000
  0.452381  0.428571  0.023810     24.000000
  0.476190  0.428571  0.023810     48.000000
  0.500000  0.428571  0.023810     48.000000
 -0.476190  0.428571  0.023810     48.000000
 -0.452381  0.428571  0.023810     48.000000
 -0.428571  0.428571  0.023810     48.000000
 -0.404762  0.428571  0.023810     24.000000
  0.476190  0.452381  0.023810     24.000000
  0.500000  0.452381  0.023810     48.000000
 -0.476190  0.452381  0.023810     48.000000
 -0.452381  0.452381  0.023810     48.000000
 -0.428571  0.452381  0.023810     24.000000
  0.500000  0.476190  0.023810     24.000000
 -0.476190  0.476190  0.023810     48.000000
 -0.452381  0.476190  0.023810     24.000000
 -0.476190  0.500000  0.023810     12.000000
  0.142857  0.095238  0.047619     24.000000
  0.166667  0.095238  0.047619     48.000000
  0.190476  0.095238  0.047619     48.000000
  0.214286  0.095238  0.047619     48.000000
  0.238095  0.095238  0.047619     48.000000
  0.261905  0.095238  0.047619     48.000000
  0.285714  0.095238  0.047619     48.000000
  0.309524  0.095238  0.047619     48.000000
  0.333333  0.095238  0.047619     48.000000
  0.357143  0.095238  0.047619     48.000000
  0.380952  0.095238  0.047619     48.000000
  0.404762  0.095238  0.047619     48.000000
  0.428571  0.095238  0.047619     48.000000
  0.452381  0.095238  0.047619     48.000000
  0.476190  0.095238  0.047619     48.000000
  0.500000  0.095238  0.047619     48.000000
 -0.476190  0.095238  0.047619     48.000000
 -0.452381  0.095238  0.047619     24.000000
  0.166667  0.119048  0.047619     24.000000
  0.190476  0.119048  0.047619     48.000000
  0.214286  0.119048  0.047619     48.000000
  0.238095  0.119048  0.047619     48.000000
  0.261905  0.119048  0.047619     48.000000
  0.285714  0.119048  0.047619     48.000000
  0.309524  0.119048  0.047619     48.000000
  0.333333  0.119048  0.047619     48.000000
  0.357143  0.119048  0.047619     48.000000
  0.380952  0.119048  0.047619     48.000000
  0.404762  0.119048  0.047619     48.000000
  0.428571  0.119048  0.047619     48.000000
  0.452381  0.119048  0.047619     48.000000
  0.476190  0.119048  0.047619     48.000000
  0.500000  0.119048  0.047619     48.000000
 -0.476190  0.119048  0.047619     48.000000
 -0.452381  0.119048  0.047619     48.000000
 -0.428571  0.119048  0.047619     48.000000
 -0.404762  0.119048  0.047619     48.000000
 -0.380952  0.119048  0.047619     48.000000
 -0.357143  0.119048  0.047619     48.000000
 -0.333333  0.119048  0.047619     48.000000
 -0.309524  0.119048  0.047619     48.000000
 -0.285714  0.119048  0.047619     48.000000
 -0.261905  0.119048  0.047619     48.000000
 -0.238095  0.119048  0.047619     48.000000
 -0.214286  0.119048  0.047619     48.000000
 -0.190476  0.119048  0.047619     48.000000
 -0.166667  0.119048  0.047619     48.000000
 -0.142857  0.119048  0.047619     48.000000
 -0.119048  0.119048  0.047619     48.000000
 -0.095238  0.119048  0.047619     48.000000
 -0.071429  0.119048  0.047619     24.000000
  0.190476  0.142857  0.047619     24.000000
  0.214286  0.142857  0.047619     48.000000
  0.238095  0.142857  0.047619     48.000000
  0.261905  0.142857  0.047619     48.000000
  0.285714  0.142857  0.047619     48.000000
  0.309524  0.142857  0.047619     48.000000
  0.333333  0.142857  0.047619     48.000000
  0.357143  0.142857  0.047619     48.000000
  0.380952  0.142857  0.047619     48.000000
  0.404762  0.142857  0.047619     48.000000
  0.428571  0.142857  0.047619     48.000000
  0.452381  0.142857  0.047619     48.000000
  0.476190  0.142857  0.047619     48.000000
  0.500000  0.142857  0.047619     48.000000
 -0.476190  0.142857  0.047619     48.000000
 -0.452381  0.142857  0.047619     48.000000
 -0.428571  0.142857  0.047619     48.000000
 -0.404762  0.142857  0.047619     48.000000
 -0.380952  0.142857  0.047619     48.000000
 -0.357143  0.142857  0.047619     48.000000
 -0.333333  0.142857  0.047619     48.000000
 -0.309524  0.142857  0.047619     48.000000
 -0.285714  0.142857  0.047619     48.000000
 -0.261905  0.142857  0.047619     48.000000
 -0.238095  0.142857  0.047619     48.000000
 -0.214286  0.142857  0.047619     48.000000
 -0.190476  0.142857  0.047619     48.000000
 -0.166667  0.142857  0.047619     48.000000
 -0.142857  0.142857  0.047619     48.000000
 -0.119048  0.142857  0.047619     48.000000
 -0.095238  0.142857  0.047619     24.000000
  0.214286  0.166667  0.047619     24.000000
  0.238095  0.166667  0.047619     48.000000
  0.261905  0.166667  0.047619     48.000000
  0.285714  0.166667  0.047619     48.000000
  0.309524  0.166667  0.047619     48.000000
  0.333333  0.166667  0.047619     48.000000
  0.357143  0.166667  0.047619     48.000000
  0.380952  0.166667  0.047619     48.000000
  0.404762  0.166667  0.047619     48.000000
  0.428571  0.166667  0.047619     48.000000
  0.452381  0.166667  0.047619     48.000000
  0.476190  0.166667  0.047619     48.000000
  0.500000  0.166667  0.047619     48.000000
 -0.476190  0.166667  0.047619     48.000000
 -0.452381  0.166667  0.047619     48.000000
 -0.428571  0.166667  0.047619     48.000000
 -0.404762  0.166667  0.047619     48.000000
 -0.380952  0.166667  0.047619     48.000000
 -0.357143  0.166667  0.047619     48.000000
 -0.333333  0.166667  0.047619     48.000000
 -0.309524  0.166667  0.047619     48.000000
 -0.285714  0.166667  0.047619     48.000000
 -0.261905  0.166667  0.047619     48.000000
 -0.238095  0.166667  0.047619     48.000000
 -0.214286  0.166667  0.047619     48.000000
 -0.190476  0.166667  0.047619     48.000000
 -0.166667  0.166667  0.047619     48.000000
 -0.142857  0.166667  0.047619     48.000000
 -0.119048  0.166667  0.047619     24.000000
  0.238095  0.190476  0.047619     24.000000
  0.261905  0.190476  0.047619     48.000000
  0.285714  0.190476  0.047619     48.000000
  0.309524  0.190476  0.047619     48.000000
  0.333333  0.190476  0.047619     48.000000
  0.357143  0.190476  0.047619     48.000000
  0.380952  0.190476  0.047619     48.000000
  0.404762  0.190476  0.047619     48.000000
  0.428571  0.190476  0.047619     48.000000
  0.452381  0.190476  0.047619     48.000000
  0.476190  0.190476  0.047619     48.000000
  0.500000  0.190476  0.047619     48.000000
 -0.476190  0.190476  0.047619     48.000000
 -0.452381  0.190476  0.047619     48.000000
 -0.428571  0.190476  0.047619     48.000000
 -0.404762  0.190476  0.047619     48.000000
 -0.380952  0.190476  0.047619     48.000000
 -0.357143  0.190476  0.047619     48.000000
 -0.333333  0.190476  0.047619     48.000000
 -0.309524  0.190476  0.047619     48.000000
 -0.285714  0.190476  0.047619     48.000000
 -0.261905  0.190476  0.047619     48.000000
 -0.238095  0.190476  0.047619     48.000000
 -0.214286  0.190476  0.047619     48.000000
 -0.190476  0.190476  0.047619     48.000000
 -0.166667  0.190476  0.047619     48.000000
 -0.142857  0.190476  0.047619     24.000000
  0.261905  0.214286  0.047619     24.000000
  0.285714  0.214286  0.047619     48.000000
  0.309524  0.214286  0.047619     48.000000
  0.333333  0.214286  0.047619     48.000000
  0.357143  0.214286  0.047619     48.000000
  0.380952  0.214286  0.047619     48.000000
  0.404762  0.214286  0.047619     48.000000
  0.428571  0.214286  0.047619     48.000000
  0.452381  0.214286  0.047619     48.000000
  0.476190  0.214286  0.047619     48.000000
  0.500000  0.214286  0.047619     48.000000
 -0.476190  0.214286  0.047619     48.000000
 -0.452381  0.214286  0.047619     48.000000
 -0.428571  0.214286  0.047619     48.000000
 -0.404762  0.214286  0.047619     48.000000
 -0.380952  0.214286  0.047619     48.000000
 -0.357143  0.214286  0.047619     48.000000
 -0.333333  0.214286  0.047619     48.000000
 -0.309524  0.214286  0.047619     48.000000
 -0.285714  0.214286  0.047619     48.000000
 -0.261905  0.214286  0.047619     48.000000
 -0.238095  0.214286  0.047619     48.000000
 -0.214286  0.214286  0.047619     48.000000
 -0.190476  0.214286  0.047619     48.000000
 -0.166667  0.214286  0.047619     24.000000
  0.285714  0.238095  0.047619     24.000000
  0.309524  0.238095  0.047619     48.000000
  0.333333  0.238095  0.047619     48.000000
  0.357143  0.238095  0.047619     48.000000
  0.380952  0.238095  0.047619     48.000000
  0.404762  0.238095  0.047619     48.000000
  0.428571  0.238095  0.047619     48.000000
  0.452381  0.238095  0.047619     48.000000
  0.476190  0.238095  0.047619     48.000000
  0.500000  0.238095  0.047619     48.000000
 -0.476190  0.238095  0.047619     48.000000
 -0.452381  0.238095  0.047619     48.000000
 -0.428571  0.238095  0.047619     48.000000
 -0.404762  0.238095  0.047619     48.000000
 -0.380952  0.238095  0.047619     48.000000
 -0.357143  0.238095  0.047619     48.000000
 -0.333333  0.238095  0.047619     48.000000
 -0.309524  0.238095  0.047619     48.000000
 -0.285714  0.238095  0.047619     48.000000
 -0.261905  0.238095  0.047619     48.000000
 -0.238095  0.238095  0.047619     48.000000
 -0.214286  0.238095  0.047619     48.000000
 -0.190476  0.238095  0.047619     24.000000
  0.309524  0.261905  0.047619     24.000000
  0.333333  0.261905  0.047619     48.000000
  0.357143  0.261905  0.047619     48.000000
  0.380952  0.261905  0.047619     48.000000
  0.404762  0.261905  0.047619     48.000000
  0.428571  0.261905  0.047619     48.000000
  0.452381  0.261905  0.047619     48.000000
  0.476190  0.261905  0.047619     48.000000
  0.500000  0.261905  0.047619     48.000000
 -0.476190  0.261905  0.047619     48.000000
 -0.452381  0.261905  0.047619     48.000000
 -0.428571  0.261905  0.047619     48.000000
 -0.404762  0.261905  0.047619     48.000000
 -0.380952  0.261905  0.047619     48.000000
 -0.357143  0.261905  0.047619     48.000000
 -0.333333  0.261905  0.047619     48.000000
 -0.309524  0.261905  0.047619     48.000000
 -0.285714  0.261905  0.047619     48.000000
 -0.261905  0.261905  0.047619     48.000000
 -0.238095  0.261905  0.047619     48.000000
 -0.214286  0.261905  0.047619     24.000000
  0.333333  0.285714  0.047619     24.000000
  0.357143  0.285714  0.047619     48.000000
  0.380952  0.285714  0.047619     48.000000
  0.404762  0.285714  0.047619     48.000000
  0.428571  0.285714  0.047619     48.000000
  0.452381  0.285714  0.047619     48.000000
  0.476190  0.285714  0.047619     48.000000
  0.500000  0.285714  0.047619     48.000000
 -0.476190  0.285714  0.047619     48.000000
 -0.452381  0.285714  0.047619     48.000000
 -0.428571  0.285714  0.047619     48.000000
 -0.404762  0.285714  0.047619     48.000000
 -0.380952  0.285714  0.047619     48.000000
 -0.357143  0.285714  0.047619     48.000000
 -0.333333  0.285714  0.047619     48.000000
 -0.309524  0.285714  0.047619     48.000000
 -0.285714  0.285714  0.047619     48.000000
 -0.261905  0.285714  0.047619     48.000000
 -0.238095  0.285714  0.047619     24.000000
  0.357143  0.309524  0.047619     24.000000
  0.380952  0.309524  0.047619     48.000000
  0.404762  0.309524  0.047619     48.000000
  0.428571  0.309524  0.047619     48.000000
  0.452381  0.309524  0.047619     48.000000
  0.476190  0.309524  0.047619     48.000000
  0.500000  0.309524  0.047619     48.000000
 -0.476190  0.309524  0.047619     48.000000
 -0.452381  0.309524  0.047619     48.000000
 -0.428571  0.309524  0.047619     48.000000
 -0.404762  0.309524  0.047619     48.000000
 -0.380952  0.309524  0.047619     48.000000
 -0.357143  0.309524  0.047619     48.000000
 -0.333333  0.309524  0.047619     48.000000
 -0.309524  0.309524  0.047619     48.000000
 -0.285714  0.309524  0.047619     48.000000
 -0.261905  0.309524  0.047619     24.000000
  0.380952  0.333333  0.047619     24.000000
  0.404762  0.333333  0.047619     48.000000
  0.428571  0.333333  0.047619     48.000000
  0.452381  0.333333  0.047619     48.000000
  0.476190  0.333333  0.047619     48.000000
  0.500000  0.333333  0.047619     48.000000
 -0.476190  0.333333  0.047619     48.000000
 -0.452381  0.333333  0.047619     48.000000
 -0.428571  0.333333  0.047619     48.000000
 -0.404762  0.333333  0.047619     48.000000
 -0.380952  0.333333  0.047619     48.000000
 -0.357143  0.333333  0.047619     48.000000
 -0.333333  0.333333  0.047619     48.000000
 -0.309524  0.333333  0.047619     48.000000
 -0.285714  0.333333  0.047619     24.000000
  0.404762  0.357143  0.047619     24.000000
  0.428571  0.357143  0.047619     48.000000
  0.452381  0.357143  0.047619     48.000000
  0.476190  0.357143  0.047619     48.000000
  0.500000  0.357143  0.047619     48.000000
 -0.476190  0.357143  0.047619     48.000000
 -0.452381  0.357143  0.047619     48.000000
 -0.428571  0.357143  0.047619     48.000000
 -0.404762  0.357143  0.047619     48.000000
 -0.380952  0.357143  0.047619     48.000000
 -0.357143  0.357143  0.047619     48.000000
 -0.333333  0.357143  0.047619     48.000000
 -0.309524  0.357143  0.047619     24.000000
  0.428571  0.380952  0.047619     24.000000
  0.452381  0.380952  0.047619     48.000000
  0.476190  0.380952  0.047619     48.000000
  0.500000  0.380952  0.047619     48.000000
 -0.476190  0.380952  0.047619     48.000000
 -0.452381  0.380952  0.047619     48.000000
 -0.428571  0.380952  0.047619     48.000000
 -0.404762  0.380952  0.047619     48.000000
 -0.380952  0.380952  0.047619     48.000000
 -0.357143  0.380952  0.047619     48.000000
 -0.333333  0.380952  0.047619     24.000000
  0.452381  0.404762  0.047619     24.000000
  0.476190  0.404762  0.047619     48.000000
  0.500000  0.404762  0.047619     48.000000
 -0.476190  0.404762  0.047619     48.000000
 -0.452381  0.404762  0.047619     48.000000
 -0.428571  0.404762  0.047619     48.000000
 -0.404762  0.404762  0.047619     48.000000
 -0.380952  0.404762  0.047619     48.000000
 -0.357143  0.404762  0.047619     24.000000
  0.476190  0.428571  0.047619     24.000000
  0.500000  0.428571  0.047619     48.000000
 -0.476190  0.428571  0.047619     48.000000
 -0.452381  0.428571  0.047619     48.000000
 -0.428571  0.428571  0.047619     48.000000
 -0.404762  0.428571  0.047619     48.000000
 -0.380952  0.428571  0.047619     24.000000
  0.500000  0.452381  0.047619     24.000000
 -0.476190  0.452381  0.047619     48.000000
 -0.452381  0.452381  0.047619     48.000000
 -0.428571  0.452381  0.047619     48.000000
 -0.404762  0.452381  0.047619     24.000000
 -0.476190  0.476190  0.047619     24.000000
 -0.452381  0.476190  0.047619     48.000000
 -0.428571  0.476190  0.047619     24.000000
 -0.452381  0.500000  0.047619     12.000000
  0.214286  0.142857  0.071429     24.000000
  0.238095  0.142857  0.071429     48.000000
  0.261905  0.142857  0.071429     48.000000
  0.285714  0.142857  0.071429     48.000000
  0.309524  0.142857  0.071429     48.000000
  0.333333  0.142857  0.071429     48.000000
  0.357143  0.142857  0.071429     48.000000
  0.380952  0.142857  0.071429     48.000000
  0.404762  0.142857  0.071429     48.000000
  0.428571  0.142857  0.071429     48.000000
  0.452381  0.142857  0.071429     48.000000
  0.476190  0.142857  0.071429     48.000000
  0.500000  0.142857  0.071429     48.000000
 -0.476190  0.142857  0.071429     48.000000
 -0.452381  0.142857  0.071429     48.000000
 -0.428571  0.142857  0.071429     24.000000
  0.238095  0.166667  0.071429     24.000000
  0.261905  0.166667  0.071429     48.000000
  0.285714  0.166667  0.071429     48.000000
  0.309524  0.166667  0.071429     48.000000
  0.333333  0.166667  0.071429     48.000000
  0.357143  0.166667  0.071429     48.000000
  0.380952  0.166667  0.071429     48.000000
  0.404762  0.166667  0.071429     48.000000
  0.428571  0.166667  0.071429     48.000000
  0.452381  0.166667  0.071429     48.000000
  0.476190  0.166667  0.071429     48.000000
  0.500000  0.166667  0.071429     48.000000
 -0.476190  0.166667  0.071429     48.000000
 -0.452381  0.166667  0.071429     48.000000
 -0.428571  0.166667  0.071429     48.000000
 -0.404762  0.166667  0.071429     48.000000
 -0.380952  0.166667  0.071429     48.000000
 -0.357143  0.166667  0.071429     48.000000
 -0.333333  0.166667  0.071429     48.000000
 -0.309524  0.166667  0.071429     48.000000
 -0.285714  0.166667  0.071429     48.000000
 -0.261905  0.166667  0.071429     48.000000
 -0.238095  0.166667  0.071429     48.000000
 -0.214286  0.166667  0.071429     48.000000
 -0.190476  0.166667  0.071429     48.000000
 -0.166667  0.166667  0.071429     48.000000
 -0.142857  0.166667  0.071429     48.000000
 -0.119048  0.166667  0.071429     48.000000
 -0.095238  0.166667  0.071429     24.000000
  0.261905  0.190476  0.071429     24.000000
  0.285714  0.190476  0.071429     48.000000
  0.309524  0.190476  0.071429     48.000000
  0.333333  0.190476  0.071429     48.000000
  0.357143  0.190476  0.071429     48.000000
  0.380952  0.190476  0.071429     48.000000
  0.404762  0.190476  0.071429     48.000000
  0.428571  0.190476  0.071429     48.000000
  0.452381  0.190476  0.071429     48.000000
  0.476190  0.190476  0.071429     48.000000
  0.500000  0.190476  0.071429     48.000000
 -0.476190  0.190476  0.071429     48.000000
 -0.452381  0.190476  0.071429     48.000000
 -0.428571  0.190476  0.071429     48.000000
 -0.404762  0.190476  0.071429     48.000000
 -0.380952  0.190476  0.071429     48.000000
 -0.357143  0.190476  0.071429     48.000000
 -0.333333  0.190476  0.071429     48.000000
 -0.309524  0.190476  0.071429     48.000000
 -0.285714  0.190476  0.071429     48.000000
 -0.261905  0.190476  0.071429     48.000000
 -0.238095  0.190476  0.071429     48.000000
 -0.214286  0.190476  0.071429     48.000000
 -0.190476  0.190476  0.071429     48.000000
 -0.166667  0.190476  0.071429     48.000000
 -0.142857  0.190476  0.071429     48.000000
 -0.119048  0.190476  0.071429     24.000000
  0.285714  0.214286  0.071429     24.000000
  0.309524  0.214286  0.071429     48.000000
  0.333333  0.214286  0.071429     48.000000
  0.357143  0.214286  0.071429     48.000000
  0.380952  0.214286  0.071429     48.000000
  0.404762  0.214286  0.071429     48.000000
  0.428571  0.214286  0.071429     48.000000
  0.452381  0.214286  0.071429     48.000000
  0.476190  0.214286  0.071429     48.000000
  0.500000  0.214286  0.071429     48.000000
 -0.476190  0.214286  0.071429     48.000000
 -0.452381  0.214286  0.071429     48.000000
 -0.428571  0.214286  0.071429     48.000000
 -0.404762  0.214286  0.071429     48.000000
 -0.380952  0.214286  0.071429     48.000000
 -0.357143  0.214286  0.071429     48.000000
 -0.333333  0.214286  0.071429     48.000000
 -0.309524  0.214286  0.071429     48.000000
 -0.285714  0.214286  0.071429     48.000000
 -0.261905  0.214286  0.071429     48.000000
 -0.238095  0.214286  0.071429     48.000000
 -0.214286  0.214286  0.071429     48.000000
 -0.190476  0.214286  0.071429     48.000000
 -0.166667  0.214286  0.071429     48.000000
 -0.142857  0.214286  0.071429     24.000000
  0.309524  0.238095  0.071429     24.000000
  0.333333  0.238095  0.071429     48.000000
  0.357143  0.238095  0.071429     48.000000
  0.380952  0.238095  0.071429     48.000000
  0.404762  0.238095  0.071429     48.000000
  0.428571  0.238095  0.071429     48.000000
  0.452381  0.238095  0.071429     48.000000
  0.476190  0.238095  0.071429     48.000000
  0.500000  0.238095  0.071429     48.000000
 -0.476190  0.238095  0.071429     48.000000
 -0.452381  0.238095  0.071429     48.000000
 -0.428571  0.238095  0.071429     48.000000
 -0.404762  0.238095  0.071429     48.000000
 -0.380952  0.238095  0.071429     48.000000
 -0.357143  0.238095  0.071429     48.000000
 -0.333333  0.238095  0.071429     48.000000
 -0.309524  0.238095  0.071429     48.000000
 -0.285714  0.238095  0.071429     48.000000
 -0.261905  0.238095  0.071429     48.000000
 -0.238095  0.238095  0.071429     48.000000
 -0.214286  0.238095  0.071429     48.000000
 -0.190476  0.238095  0.071429     48.000000
 -0.166667  0.238095  0.071429     24.000000
  0.333333  0.261905  0.071429     24.000000
  0.357143  0.261905  0.071429     48.000000
  0.380952  0.261905  0.071429     48.000000
  0.404762  0.261905  0.071429     48.000000
  0.428571  0.261905  0.071429     48.000000
  0.452381  0.261905  0.071429     48.000000
  0.476190  0.261905  0.071429     48.000000
  0.500000  0.261905  0.071429     48.000000
 -0.476190  0.261905  0.071429     48.000000
 -0.452381  0.261905  0.071429     48.000000
 -0.428571  0.261905  0.071429     48.000000
 -0.404762  0.261905  0.071429     48.000000
 -0.380952  0.261905  0.071429     48.000000
 -0.357143  0.261905  0.071429     48.000000
 -0.333333  0.261905  0.071429     48.000000
 -0.309524  0.261905  0.071429     48.000000
 -0.285714  0.261905  0.071429     48.000000
 -0.261905  0.261905  0.071429     48.000000
 -0.238095  0.261905  0.071429     48.000000
 -0.214286  0.261905  0.071429     48.000000
 -0.190476  0.261905  0.071429     24.000000
  0.357143  0.285714  0.071429     24.000000
  0.380952  0.285714  0.071429     48.000000
  0.404762  0.285714  0.071429     48.000000
  0.428571  0.285714  0.071429     48.000000
  0.452381  0.285714  0.071429     48.000000
  0.476190  0.285714  0.071429     48.000000
  0.500000  0.285714  0.071429     48.000000
 -0.476190  0.285714  0.071429     48.000000
 -0.452381  0.285714  0.071429     48.000000
 -0.428571  0.285714  0.071429     48.000000
 -0.404762  0.285714  0.071429     48.000000
 -0.380952  0.285714  0.071429     48.000000
 -0.357143  0.285714  0.071429     48.000000
 -0.333333  0.285714  0.071429     48.000000
 -0.309524  0.285714  0.071429     48.000000
 -0.285714  0.285714  0.071429     48.000000
 -0.261905  0.285714  0.071429     48.000000
 -0.238095  0.285714  0.071429     48.000000
 -0.214286  0.285714  0.071429     24.000000
  0.380952  0.309524  0.071429     24.000000
  0.404762  0.309524  0.071429     48.000000
  0.428571  0.309524  0.071429     48.000000
  0.452381  0.309524  0.071429     48.000000
  0.476190  0.309524  0.071429     48.000000
  0.500000  0.309524  0.071429     48.000000
 -0.476190  0.309524  0.071429     48.000000
 -0.452381  0.309524  0.071429     48.000000
 -0.428571  0.309524  0.071429     48.000000
 -0.404762  0.309524  0.071429     48.000000
 -0.380952  0.309524  0.071429     48.000000
 -0.357143  0.309524  0.071429     48.000000
 -0.333333  0.309524  0.071429     48.000000
 -0.309524  0.309524  0.071429     48.000000
 -0.285714  0.309524  0.071429     48.000000
 -0.261905  0.309524  0.071429     48.000000
 -0.238095  0.309524  0.071429     24.000000
  0.404762  0.333333  0.071429     24.000000
  0.428571  0.333333  0.071429     48.000000
  0.452381  0.333333  0.071429     48.000000
  0.476190  0.333333  0.071429     48.000000
  0.500000  0.333333  0.071429     48.000000
 -0.476190  0.333333  0.071429     48.000000
 -0.452381  0.333333  0.071429     48.000000
 -0.428571  0.333333  0.071429     48.000000
 -0.404762  0.333333  0.071429     48.000000
 -0.380952  0.333333  0.071429     48.000000
 -0.357143  0.333333  0.071429     48.000000
 -0.333333  0.333333  0.071429     48.000000
 -0.309524  0.333333  0.071429     48.000000
 -0.285714  0.333333  0.071429     48.000000
 -0.261905  0.333333  0.071429     24.000000
  0.428571  0.357143  0.071429     24.000000
  0.452381  0.357143  0.071429     48.000000
  0.476190  0.357143  0.071429     48.000000
  0.500000  0.357143  0.071429     48.000000
 -0.476190  0.357143  0.071429     48.000000
 -0.452381  0.357143  0.071429     48.000000
 -0.428571  0.357143  0.071429     48.000000
 -0.404762  0.357143  0.071429     48.000000
 -0.380952  0.357143  0.071429     48.000000
 -0.357143  0.357143  0.071429     48.000000
 -0.333333  0.357143  0.071429     48.000000
 -0.309524  0.357143  0.071429     48.000000
 -0.285714  0.357143  0.071429     24.000000
  0.452381  0.380952  0.071429     24.000000
  0.476190  0.380952  0.071429     48.000000
  0.500000  0.380952  0.071429     48.000000
 -0.476190  0.380952  0.071429     48.000000
 -0.452381  0.380952  0.071429     48.000000
 -0.428571  0.380952  0.071429     48.000000
 -0.404762  0.380952  0.071429     48.000000
 -0.380952  0.380952  0.071429     48.000000
 -0.357143  0.380952  0.071429     48.000000
 -0.333333  0.380952  0.071429     48.000000
 -0.309524  0.380952  0.071429     24.000000
  0.476190  0.404762  0.071429     24.000000
  0.500000  0.404762  0.071429     48.000000
 -0.476190  0.404762  0.071429     48.000000
 -0.452381  0.404762  0.071429     48.000000
 -0.428571  0.404762  0.071429     48.000000
 -0.404762  0.404762  0.071429     48.000000
 -0.380952  0.404762  0.071429     48.000000
 -0.357143  0.404762  0.071429     48.000000
 -0.333333  0.404762  0.071429     24.000000
  0.500000  0.428571  0.071429     24.000000
 -0.476190  0.428571  0.071429     48.000000
 -0.452381  0.428571  0.071429     48.000000
 -0.428571  0.428571  0.071429     48.000000
 -0.404762  0.428571  0.071429     48.000000
 -0.380952  0.428571  0.071429     48.000000
 -0.357143  0.428571  0.071429     24.000000
 -0.476190  0.452381  0.071429     24.000000
 -0.452381  0.452381  0.071429     48.000000
 -0.428571  0.452381  0.071429     48.000000
 -0.404762  0.452381  0.071429     48.000000
 -0.380952  0.452381  0.071429     24.000000
 -0.452381  0.476190  0.071429     24.000000
 -0.428571  0.476190  0.071429     48.000000
 -0.404762  0.476190  0.071429     24.000000
 -0.428571  0.500000  0.071429     12.000000
  0.285714  0.190476  0.095238     24.000000
  0.309524  0.190476  0.095238     48.000000
  0.333333  0.190476  0.095238     48.000000
  0.357143  0.190476  0.095238     48.000000
  0.380952  0.190476  0.095238     48.000000
  0.404762  0.190476  0.095238     48.000000
  0.428571  0.190476  0.095238     48.000000
  0.452381  0.190476  0.095238     48.000000
  0.476190  0.190476  0.095238     48.000000
  0.500000  0.190476  0.095238     48.000000
 -0.476190  0.190476  0.095238     48.000000
 -0.452381  0.190476  0.095238     48.000000
 -0.428571  0.190476  0.095238     48.000000
 -0.404762  0.190476  0.095238     24.000000
  0.309524  0.214286  0.095238     24.000000
  0.333333  0.214286  0.095238     48.000000
  0.357143  0.214286  0.095238     48.000000
  0.380952  0.214286  0.095238     48.000000
  0.404762  0.214286  0.095238     48.000000
  0.428571  0.214286  0.095238     48.000000
  0.452381  0.214286  0.095238     48.000000
  0.476190  0.214286  0.095238     48.000000
  0.500000  0.214286  0.095238     48.000000
 -0.476190  0.214286  0.095238     48.000000
 -0.452381  0.214286  0.095238     48.000000
 -0.428571  0.214286  0.095238     48.000000
 -0.404762  0.214286  0.095238     48.000000
 -0.380952  0.214286  0.095238     48.000000
 -0.357143  0.214286  0.095238     48.000000
 -0.333333  0.214286  0.095238     48.000000
 -0.309524  0.214286  0.095238     48.000000
 -0.285714  0.214286  0.095238     48.000000
 -0.261905  0.214286  0.095238     48.000000
 -0.238095  0.214286  0.095238     48.000000
 -0.214286  0.214286  0.095238     48.000000
 -0.190476  0.214286  0.095238     48.000000
 -0.166667  0.214286  0.095238     48.000000
 -0.142857  0.214286  0.095238     48.000000
 -0.119048  0.214286  0.095238     24.000000
  0.333333  0.238095  0.095238     24.000000
  0.357143  0.238095  0.095238     48.000000
  0.380952  0.238095  0.095238     48.000000
  0.404762  0.238095  0.095238     48.000000
  0.428571  0.238095  0.095238     48.000000
  0.452381  0.238095  0.095238     48.000000
  0.476190  0.238095  0.095238     48.000000
  0.500000  0.238095  0.095238     48.000000
 -0.476190  0.238095  0.095238     48.000000
 -0.452381  0.238095  0.095238     48.000000
 -0.428571  0.238095  0.095238     48.000000
 -0.404762  0.238095  0.095238     48.000000
 -0.380952  0.238095  0.095238     48.000000
 -0.357143  0.238095  0.095238     48.000000
 -0.333333  0.238095  0.095238     48.000000
 -0.309524  0.238095  0.095238     48.000000
 -0.285714  0.238095  0.095238     48.000000
 -0.261905  0.238095  0.095238     48.000000
 -0.238095  0.238095  0.095238     48.000000
 -0.214286  0.238095  0.095238     48.000000
 -0.190476  0.238095  0.095238     48.000000
 -0.166667  0.238095  0.095238     48.000000
 -0.142857  0.238095  0.095238     24.000000
  0.357143  0.261905  0.095238     24.000000
  0.380952  0.261905  0.095238     48.000000
  0.404762  0.261905  0.095238     48.000000
  0.428571  0.261905  0.095238     48.000000
  0.452381  0.261905  0.095238     48.000000
  0.476190  0.261905  0.095238     48.000000
  0.500000  0.261905  0.095238     48.000000
 -0.476190  0.261905  0.095238     48.000000
 -0.452381  0.261905  0.095238     48.000000
 -0.428571  0.261905  0.095238     48.000000
 -0.404762  0.261905  0.095238     48.000000
 -0.380952  0.261905  0.095238     48.000000
 -0.357143  0.261905  0.095238     48.000000
 -0.333333  0.261905  0.095238     48.000000
[...]
      8      31.2646      0.00000

 k-point  1870 :      -0.2381    0.4048    0.1905
  band No.  band energies     occupation 
      1      -3.3109      2.00000
      2       0.5016      2.00000
      3       2.1310      2.00000
      4       4.5763      2.00000
      5      24.4722      0.00000
      6      25.5183      0.00000
      7      29.2019      0.00000
      8      32.0033      0.00000

 k-point  1871 :      -0.2143    0.4048    0.1905
  band No.  band energies     occupation 
      1      -3.8623      2.00000
      2       0.9187      2.00000
      3       2.2952      2.00000
      4       4.8750      2.00000
      5      24.5703      0.00000
      6      24.8977      0.00000
      7      29.0000      0.00000
      8      32.6178      0.00000

 k-point  1872 :      -0.3810    0.4286    0.1905
  band No.  band energies     occupation 
      1      -3.4423      2.00000
      2       0.7646      2.00000
      3       2.6244      2.00000
      4       4.0448      2.00000
      5      23.8320      0.00000
      6      24.4702      0.00000
      7      29.4022      0.00000
      8      32.8579      0.00000

 k-point  1873 :      -0.3571    0.4286    0.1905
  band No.  band energies     occupation 
      1      -2.8964      2.00000
      2       0.3914      2.00000
      3       2.3964      2.00000
      4       3.7874      2.00000
      5      24.1454      0.00000
      6      24.9638      0.00000
      7      29.3589      0.00000
      8      32.2462      0.00000

 k-point  1874 :      -0.3333    0.4286    0.1905
  band No.  band energies     occupation 
      1      -2.3798      2.00000
      2      -0.0175      2.00000
      3       2.1960      2.00000
      4       3.6620      2.00000
      5      24.2203      0.00000
      6      25.6737      0.00000
      7      29.3677      0.00000
      8      31.5284      0.00000

 k-point  1875 :      -0.3095    0.4286    0.1905
  band No.  band energies     occupation 
      1      -1.9883      2.00000
      2      -0.3478      2.00000
      3       2.0107      2.00000
      4       3.6681      2.00000
      5      24.2789      0.00000
      6      26.2645      0.00000
      7      29.4934      0.00000
      8      30.8121      0.00000

 k-point  1876 :      -0.2857    0.4286    0.1905
  band No.  band energies     occupation 
      1      -1.9480      2.00000
      2      -0.3660      2.00000
      3       1.8581      2.00000
      4       3.7838      2.00000
      5      24.3496      0.00000
      6      26.5427      0.00000
      7      29.7997      0.00000
      8      30.2297      0.00000

 k-point  1877 :      -0.2619    0.4286    0.1905
  band No.  band energies     occupation 
      1      -2.2879      2.00000
      2      -0.0599      2.00000
      3       1.7799      2.00000
      4       3.9848      2.00000
      5      24.4307      0.00000
      6      26.4175      0.00000
      7      29.6632      0.00000
      8      30.5054      0.00000

 k-point  1878 :      -0.2381    0.4286    0.1905
  band No.  band energies     occupation 
      1      -2.7789      2.00000
      2       0.2869      2.00000
      3       1.8470      2.00000
      4       4.2532      2.00000
      5      24.5016      0.00000
      6      25.9960      0.00000
      7      29.3803      0.00000
      8      31.2452      0.00000

 k-point  1879 :      -0.3571    0.4524    0.1905
  band No.  band energies     occupation 
      1      -2.6569      2.00000
      2       0.2282      2.00000
      3       2.5879      2.00000
      4       3.4720      2.00000
      5      23.8995      0.00000
      6      24.3501      0.00000
      7      29.9159      0.00000
      8      32.3730      0.00000

 k-point  1880 :      -0.3333    0.4524    0.1905
  band No.  band energies     occupation 
      1      -2.1350      2.00000
      2      -0.1020      2.00000
      3       2.3409      2.00000
      4       3.2901      2.00000
      5      24.1596      0.00000
      6      24.9812      0.00000
      7      29.8161      0.00000
      8      31.6451      0.00000

 k-point  1881 :      -0.3095    0.4524    0.1905
  band No.  band energies     occupation 
      1      -1.6969      2.00000
      2      -0.4042      2.00000
      3       2.0410      2.00000
      4       3.3109      2.00000
      5      24.2380      0.00000
      6      25.7695      0.00000
      7      29.7353      0.00000
      8      30.9149      0.00000

 k-point  1882 :      -0.2857    0.4524    0.1905
  band No.  band energies     occupation 
      1      -1.5602      2.00000
      2      -0.4814      2.00000
      3       1.7888      2.00000
      4       3.4585      2.00000
      5      24.3123      0.00000
      6      26.3996      0.00000
      7      29.7277      0.00000
      8      30.2986      0.00000

 k-point  1883 :      -0.2619    0.4524    0.1905
  band No.  band energies     occupation 
      1      -1.8398      2.00000
      2      -0.2627      2.00000
      3       1.6745      2.00000
      4       3.6894      2.00000
      5      24.3858      0.00000
      6      26.6355      0.00000
      7      29.8884      0.00000
      8      29.9490      0.00000

 k-point  1884 :      -0.3333    0.4762    0.1905
  band No.  band energies     occupation 
      1      -1.8727      2.00000
      2      -0.4015      2.00000
      3       2.6342      2.00000
      4       3.0527      2.00000
      5      23.9886      0.00000
      6      24.2208      0.00000
      7      30.5060      0.00000
      8      31.7753      0.00000

 k-point  1885 :      -0.3095    0.4762    0.1905
  band No.  band energies     occupation 
      1      -1.4062      2.00000
      2      -0.6885      2.00000
      3       2.3304      2.00000
      4       3.0146      2.00000
      5      24.1682      0.00000
      6      24.9827      0.00000
      7      30.3587      0.00000
      8      31.0243      0.00000

 k-point  1886 :      -0.2857    0.4762    0.1905
  band No.  band energies     occupation 
      1      -1.2641      2.00000
      2      -0.7290      2.00000
      3       1.9776      2.00000
      4       3.1956      2.00000
      5      24.2432      0.00000
      6      25.8008      0.00000
      7      30.0769      0.00000
      8      30.4894      0.00000

 k-point  1887 :      -0.3095    0.5000    0.1905
  band No.  band energies     occupation 
      1      -1.1113      2.00000
      2      -1.1113      2.00000
      3       2.7812      2.00000
      4       2.7812      2.00000
      5      24.0974      0.00000
      6      24.0974      0.00000
      7      31.1377      0.00000
      8      31.1377      0.00000

 k-point  1888 :      -0.3571    0.4286    0.2143
  band No.  band energies     occupation 
      1      -3.1167      2.00000
      2       0.5515      2.00000
      3       2.2110      2.00000
      4       4.1058      2.00000
      5      24.7804      0.00000
      6      24.9259      0.00000
      7      29.0825      0.00000
      8      32.1174      0.00000

 k-point  1889 :      -0.3333    0.4286    0.2143
  band No.  band energies     occupation 
      1      -2.5874      2.00000
      2       0.1866      2.00000
      3       2.0621      2.00000
      4       3.8357      2.00000
      5      24.7422      0.00000
      6      25.5874      0.00000
      7      29.2017      0.00000
      8      31.3750      0.00000

 k-point  1890 :      -0.3095    0.4286    0.2143
  band No.  band energies     occupation 
      1      -2.1304      2.00000
      2      -0.1986      2.00000
      3       2.0112      2.00000
      4       3.6599      2.00000
      5      24.7047      0.00000
      6      26.0924      0.00000
      7      29.4470      0.00000
      8      30.6380      0.00000

 k-point  1891 :      -0.2857    0.4286    0.2143
  band No.  band energies     occupation 
      1      -1.9183      2.00000
      2      -0.3913      2.00000
      3       2.0014      2.00000
      4       3.5983      2.00000
      5      24.6920      0.00000
      6      26.2829      0.00000
      7      29.7379      0.00000
      8      30.1578      0.00000

 k-point  1892 :      -0.3333    0.4524    0.2143
  band No.  band energies     occupation 
      1      -2.3700      2.00000
      2       0.1328      2.00000
      3       2.2083      2.00000
      4       3.4340      2.00000
      5      24.9189      0.00000
      6      24.9579      0.00000
      7      29.3327      0.00000
      8      31.4995      0.00000

 k-point  1893 :      -0.3095    0.4524    0.2143
  band No.  band energies     occupation 
      1      -1.8880      2.00000
      2      -0.1784      2.00000
      3       2.0740      2.00000
      4       3.2171      2.00000
      5      24.9204      0.00000
      6      25.6660      0.00000
      7      29.3597      0.00000
      8      30.7404      0.00000

 k-point  1894 :      -0.2857    0.4524    0.2143
  band No.  band energies     occupation 
      1      -1.5776      2.00000
      2      -0.4090      2.00000
      3       1.9596      2.00000
      4       3.1697      2.00000
      5      24.9297      0.00000
      6      26.1588      0.00000
      7      29.4974      0.00000
      8      30.1013      0.00000

 k-point  1895 :      -0.2619    0.4524    0.2143
  band No.  band energies     occupation 
      1      -1.6824      2.00000
      2      -0.3164      2.00000
      3       1.8796      2.00000
      4       3.2806      2.00000
      5      24.9477      0.00000
      6      26.2454      0.00000
      7      29.5289      0.00000
      8      30.0054      0.00000

 k-point  1896 :      -0.2381    0.4524    0.2143
  band No.  band energies     occupation 
      1      -2.0889      2.00000
      2      -0.0374      2.00000
      3       1.8938      2.00000
      4       3.5128      2.00000
      5      24.9381      0.00000
      6      25.9425      0.00000
      7      29.3162      0.00000
      8      30.6100      0.00000

 k-point  1897 :      -0.3095    0.4762    0.2143
  band No.  band energies     occupation 
      1      -1.6434      2.00000
      2      -0.3688      2.00000
      3       2.3057      2.00000
      4       2.9011      2.00000
      5      24.9872      0.00000
      6      24.9875      0.00000
      7      29.7357      0.00000
      8      30.8611      0.00000

 k-point  1898 :      -0.2857    0.4762    0.2143
  band No.  band energies     occupation 
      1      -1.2619      2.00000
      2      -0.6125      2.00000
      3       2.1514      2.00000
      4       2.8100      2.00000
      5      25.0029      0.00000
      6      25.7210      0.00000
      7      29.6783      0.00000
      8      30.1683      0.00000

 k-point  1899 :      -0.2619    0.4762    0.2143
  band No.  band energies     occupation 
      1      -1.3113      2.00000
      2      -0.5435      2.00000
      3       1.9472      2.00000
      4       2.9832      2.00000
      5      25.0077      0.00000
      6      26.1898      0.00000
      7      29.7047      0.00000
      8      29.7184      0.00000

 k-point  1900 :      -0.2857    0.5000    0.2143
  band No.  band energies     occupation 
      1      -0.9661      2.00000
      2      -0.9661      2.00000
      3       2.5280      2.00000
      4       2.5280      2.00000
      5      25.0029      0.00000
      6      25.0029      0.00000
      7      30.2584      0.00000
      8      30.2584      0.00000

 k-point  1901 :      -0.2857    0.4762    0.2381
  band No.  band energies     occupation 
      1      -1.4459      2.00000
      2      -0.4164      2.00000
      3       2.0651      2.00000
      4       2.8776      2.00000
      5      25.3252      0.00000
      6      25.8280      0.00000
      7      29.3963      0.00000
      8      30.0589      0.00000

 k-point  1902 :      -0.2619    0.4762    0.2381
  band No.  band energies     occupation 
      1      -1.2063      2.00000
      2      -0.5883      2.00000
      3       2.0908      2.00000
      4       2.7354      2.00000
      5      25.3934      0.00000
      6      25.9956      0.00000
      7      29.4912      0.00000
      8      29.6998      0.00000

 k-point  1903 :      -0.2619    0.5000    0.2381
  band No.  band energies     occupation 
      1      -0.8823      2.00000
      2      -0.8823      2.00000
      3       2.3888      2.00000
      4       2.3888      2.00000
      5      25.6265      0.00000
      6      25.6265      0.00000
      7      29.6440      0.00000
      8      29.6440      0.00000


--------------------------------------------------------------------------------------------------------


 soft charge-density along one line, spin component           1
         0         1         2         3         4         5         6         7         8         9
 total charge-density along one line
 
 pseudopotential strength for first ion, spin component:           1
  9.437  12.526  -0.000   0.000   0.000   0.000  -0.000  -0.000
 12.526  16.623  -0.000   0.000   0.000   0.000  -0.000  -0.000
 -0.000  -0.000  -3.442   0.000   0.000   6.657  -0.000  -0.000
  0.000   0.000   0.000  -3.442   0.000  -0.000   6.657  -0.000
  0.000   0.000   0.000   0.000  -3.442  -0.000  -0.000   6.657
  0.000   0.000   6.657  -0.000  -0.000 -15.086   0.000   0.000
 -0.000  -0.000  -0.000   6.657  -0.000   0.000 -15.086   0.000
 -0.000  -0.000  -0.000  -0.000   6.657   0.000   0.000 -15.086
 total augmentation occupancy for first ion, spin component:           1
 11.374  -5.620   0.000   0.000   0.000   0.000   0.000   0.000
 -5.620   2.857   0.000   0.000   0.000   0.000   0.000  -0.000
  0.000   0.000   1.888   0.000  -0.000   0.189   0.000   0.000
  0.000   0.000  -0.000   1.888  -0.000  -0.000   0.189   0.000
  0.000   0.000  -0.000   0.000   1.888   0.000   0.000   0.189
  0.000   0.000   0.189   0.000  -0.000   0.021   0.000  -0.000
  0.000   0.000   0.000   0.189   0.000   0.000   0.021  -0.000
  0.000   0.000   0.000   0.000   0.189  -0.000  -0.000   0.021


------------------------ aborting loop because EDIFF is reached ----------------------------------------


 


 total charge     
 
# of ion       s       p       d       tot
------------------------------------------
    1        0.899   2.012   0.000   2.911
    2        0.899   2.012   0.000   2.911
--------------------------------------------------
tot          1.798   4.024   0.000   5.822
 
    CHARGE:  cpu time    0.0855: real time    0.0855
    FORLOC:  cpu time    0.0002: real time    0.0002
    FORNL :  cpu time    0.1475: real time    0.1476
    STRESS:  cpu time   15.8793: real time   15.8850
    FORCOR:  cpu time    0.0157: real time    0.0157
    FORHAR:  cpu time    0.0009: real time    0.0009
    MIXING:  cpu time    0.0010: real time    0.0010
    OFIELD:  cpu time    0.0000: real time    0.0000

  FORCE on cell =-STRESS in cart. coord.  units (eV):
  Direction    XX          YY          ZZ          XY          YZ          ZX
  --------------------------------------------------------------------------------------
  Alpha Z    36.47409    36.47409    36.47409
  Ewald    -125.24982  -125.24982  -125.24982    -0.00000    -0.00000    -0.00000
  Hartree     7.79455     7.79455     7.79455     0.00000     0.00000     0.00000
  E(xc)     -32.32206   -32.70506   -32.23774     0.14049    -0.01823     0.07304
  Local      -8.12055    -8.12055    -8.12055    -0.00000    -0.00000    -0.00000
  n-local    -8.04013    -6.60484    -9.64068    -0.11906    -0.27958     0.15824
  augment    -1.19568    -1.19568    -1.19568     0.00000     0.00000     0.00000
  Kinetic   142.48452   132.84340   142.97094     5.10406    -1.10852     2.09955
  Fock        0.00000     0.00000     0.00000     0.00000     0.00000     0.00000
  -------------------------------------------------------------------------------------
  Total       8.61870     8.61870     8.61870     0.00000     0.00000    -0.00000
  in kB    1532.80479  1532.80479  1532.80479     0.00000     0.00000    -0.00000
  external pressure =     1532.80 kB  Pullay stress =        0.00 kB


 VOLUME and BASIS-vectors are now :
 -----------------------------------------------------------------------------
  energy-cutoff  :      800.00
  volume of cell :        9.01
      direct lattice vectors                 reciprocal lattice vectors
     0.000000000  1.651500000  1.651500000    -0.302755071  0.302755071  0.302755071
     1.651500000  0.000000000  1.651500000     0.302755071 -0.302755071  0.302755071
     1.651500000  1.651500000  0.000000000     0.302755071  0.302755071 -0.302755071

  length of vectors
     2.335573698  2.335573698  2.335573698     0.524387165  0.524387165  0.524387165


 FORCES acting on ions
    electron-ion (+dipol)            ewald-force                    non-local-force                 convergence-correction
 -----------------------------------------------------------------------------------------------
   -.149E-07 -.149E-07 -.127E-07   0.272E-13 0.151E-13 0.254E-13   0.222E-15 0.139E-15 0.114E-15   0.319E-09 0.319E-09 0.319E-09
   0.149E-07 0.149E-07 0.127E-07   -.267E-13 -.157E-13 -.254E-13   -.132E-15 -.173E-15 -.114E-15   -.319E-09 -.319E-09 -.319E-09
 -----------------------------------------------------------------------------------------------
   0.210E-12 0.414E-12 0.183E-12   0.453E-15 -.553E-15 -.223E-16   0.902E-16 -.347E-16 0.000E+00   0.652E-17 -.371E-14 -.156E-14
 
 
 POSITION                                       TOTAL-FORCE (eV/Angst)
 -----------------------------------------------------------------------------------
      2.89012      2.89012      2.89012         0.000000      0.000000     -0.000000
      0.41287      0.41287      0.41287        -0.000000     -0.000000      0.000000
 -----------------------------------------------------------------------------------
    total drift:                                0.000000      0.000000      0.000000


--------------------------------------------------------------------------------------------------------



  FREE ENERGIE OF THE ION-ELECTRON SYSTEM (eV)
  ---------------------------------------------------
  free  energy   TOTEN  =       -18.75120527 eV

  energy  without entropy=      -18.75120527  energy(sigma->0) =      -18.75120527
 


--------------------------------------------------------------------------------------------------------


    POTLOK:  cpu time    0.3731: real time    0.3731


--------------------------------------------------------------------------------------------------------


     LOOP+:  cpu time  112.1321: real time  112.2176
    4ORBIT:  cpu time    0.0000: real time    0.0000
 


 total charge     
 
# of ion       s       p       d       tot
------------------------------------------
    1        0.899   2.012   0.000   2.911
    2        0.899   2.012   0.000   2.911
--------------------------------------------------
tot          1.798   4.024   0.000   5.822
 
 BZINTS: Fermi energy:   18.242876;    8.000000 electrons
         Band energy: 0.178151E+02;  BLOECHL correction:   -0.000000

 total amount of memory used by VASP MPI-rank0    44598. kBytes
=======================================================================

   base      :      30000. kBytes
   nonl-proj :       6091. kBytes
   fftplans  :        918. kBytes
   grid      :        523. kBytes
   one-center:          3. kBytes
   wavefun   :       7063. kBytes
 
  
  
 General timing and accounting informations for this job:
 ========================================================
  
                  Total CPU time used (sec):      117.951
                            User time (sec):      117.540
                          System time (sec):        0.411
                         Elapsed time (sec):      118.381
  
                   Maximum memory used (kb):      109452.
                   Average memory used (kb):           0.
  
                          Minor page faults:        39465
                          Major page faults:            6
                 Voluntary context switches:         1451
