 vasp.6.1.2 22Jul20 (build Mar 11 2021 17:42:27) complex                        
  
 executed on             LinuxIFC date 2021.03.19  16:21:46
 running on   40 total cores
 distrk:  each k-point on   20 cores,    2 groups
 distr:  one band on NCORE=  10 cores,    2 groups


--------------------------------------------------------------------------------------------------------


 INCAR:
 POTCAR:    PAW_PBE C 08Apr2002                   
 POTCAR:    PAW_PBE C 08Apr2002                   
   VRHFIN =C: s2p2                                                                                  
   LEXCH  = PE                                                                                      
   EATOM  =   147.1560 eV,   10.8157 Ry                                                             
                                                                                                    
   TITEL  = PAW_PBE C 08Apr2002                                                                     
   LULTRA =        F    use ultrasoft PP ?                                                          
   IUNSCR =        1    unscreen: 0-lin 1-nonlin 2-no                                               
   RPACOR =    1.200    partial core radius                                                         
   POMASS =   12.011; ZVAL   =    4.000    mass and valenz                                          
   RCORE  =    1.500    outmost cutoff radius                                                       
   RWIGS  =    1.630; RWIGS  =    0.863    wigner-seitz radius (au A)                               
   ENMAX  =  400.000; ENMIN  =  300.000 eV                                                          
   ICORE  =        2    local potential                                                             
   LCOR   =        T    correct aug charges                                                         
   LPAW   =        T    paw PP                                                                      
   EAUG   =  644.873                                                                                
   DEXC   =    0.000                                                                                
   RMAX   =    1.529    core radius for proj-oper                                                   
   RAUG   =    1.300    factor for augmentation sphere                                              
   RDEP   =    1.501    radius for radial grids                                                     
   RDEPT  =    1.300    core radius for aug-charge                                                  
                                                                                                    
   Atomic configuration                                                                             
    4 entries                                                                                       
     n  l   j            E        occ.                                                              
     1  0  0.50      -273.3789   2.0000                                                             
     2  0  0.50       -13.7508   2.0000                                                             
     2  1  0.50        -5.2854   2.0000                                                             
     3  2  1.50        -5.4423   0.0000                                                             
   Description                                                                                      
     l       E           TYP  RCUT    TYP  RCUT                                                     
     0    -13.7508458     23  1.200                                                                 
     0     -8.2022199     23  1.200                                                                 
     1     -5.2854383     23  1.500                                                                 
     1     34.0145650     23  1.500                                                                 
     2     -5.4423304      7  1.500                                                                 
  local pseudopotential read in
  partial core-charges read in
  partial kinetic energy density read in
  atomic valenz-charges read in
  non local Contribution for L=           0  read in
    real space projection operators read in
  non local Contribution for L=           0  read in
    real space projection operators read in
  non local Contribution for L=           1  read in
    real space projection operators read in
  non local Contribution for L=           1  read in
    real space projection operators read in
    PAW grid and wavefunctions read in
 
   number of l-projection  operators is LMAX  =           4
   number of lm-projection operators is LMMAX =           8
 
  PAW_PBE C 08Apr2002                   :
 energy of atom  1       EATOM= -147.1560
 kinetic energy error for atom=    0.0016 (will be added to EATOM!!)
 
 
 POSCAR: carbon
  positions in direct lattice
  No initial velocities read in

 METAGGA = R2SCA    LMAXTAU =  6    LMIXTAU =  T

 exchange correlation table for  LEXCH =        8
   RHO(1)=    0.500       N(1)  =     2000
   RHO(2)=  100.500       N(2)  =     4000
 


--------------------------------------------------------------------------------------------------------


 ion  position               nearest neighbor table
   1  0.875  0.875  0.875-   2 1.47   2 1.47   2 1.47   2 1.47
   2  0.125  0.125  0.125-   1 1.47   1 1.47   1 1.47   1 1.47
 
  LATTYP: Found a face centered cubic cell.
 ALAT       =     3.4030000000
  
  Lattice vectors:
  
 A1 = (   0.0000000000,   1.7015000000,   1.7015000000)
 A2 = (   1.7015000000,   0.0000000000,   1.7015000000)
 A3 = (   1.7015000000,   1.7015000000,   0.0000000000)


Analysis of symmetry for initial positions (statically):
=====================================================================
 Subroutine PRICEL returns:
 Original cell was already a primitive cell.
 

 Routine SETGRP: Setting up the symmetry group for a 
 face centered cubic supercell.


 Subroutine GETGRP returns: Found 48 space group operations
 (whereof 12 operations were pure point group operations)
 out of a pool of 48 trial point group operations.


The static configuration has the point symmetry D_3d.
 The point group associated with its full space group is O_h .


Analysis of symmetry for dynamics (positions and initial velocities):
=====================================================================
 Subroutine PRICEL returns:
 Original cell was already a primitive cell.
 

 Routine SETGRP: Setting up the symmetry group for a 
 face centered cubic supercell.


 Subroutine GETGRP returns: Found 48 space group operations
 (whereof 12 operations were pure point group operations)
 out of a pool of 48 trial point group operations.


The dynamic configuration has the point symmetry D_3d.
 The point group associated with its full space group is O_h .


 Subroutine INISYM returns: Found 48 space group operations
 (whereof 12 operations are pure point group operations),
 and found     1 'primitive' translations


----------------------------------------------------------------------------------------

                                     Primitive cell                                     

  volume of cell :       9.8520

  direct lattice vectors                    reciprocal lattice vectors
     0.000000000  1.701500000  1.701500000    -0.293858360  0.293858360  0.293858360
     1.701500000  0.000000000  1.701500000     0.293858360 -0.293858360  0.293858360
     1.701500000  1.701500000  0.000000000     0.293858360  0.293858360 -0.293858360

  length of vectors
     2.406284376  2.406284376  2.406284376     0.508977610  0.508977610  0.508977610

  position of ions in fractional coordinates (direct lattice)
     0.875000000  0.875000000  0.875000000
     0.125000000  0.125000000  0.125000000

  ion indices of the primitive-cell ions
   primitive index   ion index
                 1           1
                 2           2

----------------------------------------------------------------------------------------

 
 

Automatic generation of k-mesh.
 generate k-points for:   40   40   40
Space group operators:
 irot       det(A)        alpha          n_x          n_y          n_z        tau_x        tau_y        tau_z
    1     1.000000     0.000000     1.000000     0.000000     0.000000     0.000000     0.000000     0.000000
    2    -1.000000     0.000000     1.000000     0.000000     0.000000     0.000000     0.000000     0.000000
    3     1.000000   120.000000    -0.577350    -0.577350    -0.577350     0.000000     0.000000     0.000000
    4    -1.000000   120.000000    -0.577350    -0.577350    -0.577350     0.000000     0.000000     0.000000
    5     1.000000   120.000000     0.577350     0.577350     0.577350     0.000000     0.000000     0.000000
    6    -1.000000   120.000000     0.577350     0.577350     0.577350     0.000000     0.000000     0.000000
    7     1.000000   180.000000     0.000000    -0.707107     0.707107     0.000000     0.000000     0.000000
    8    -1.000000   180.000000     0.000000    -0.707107     0.707107     0.000000     0.000000     0.000000
    9     1.000000   180.000000     0.707107    -0.707107     0.000000     0.000000     0.000000     0.000000
   10    -1.000000   180.000000     0.707107    -0.707107     0.000000     0.000000     0.000000     0.000000
   11     1.000000   180.000000     0.707107     0.000000    -0.707107     0.000000     0.000000     0.000000
   12    -1.000000   180.000000     0.707107     0.000000    -0.707107     0.000000     0.000000     0.000000
   13     1.000000    90.000000     0.000000     0.000000    -1.000000    -0.500000     0.000000     0.000000
   14    -1.000000    90.000000     0.000000     0.000000    -1.000000    -0.500000     0.000000     0.000000
   15     1.000000   180.000000     0.000000     0.707107     0.707107    -0.500000     0.000000     0.000000
   16    -1.000000   180.000000     0.000000     0.707107     0.707107    -0.500000     0.000000     0.000000
   17     1.000000    90.000000     0.000000     1.000000     0.000000    -0.500000     0.000000     0.000000
   18    -1.000000    90.000000     0.000000     1.000000     0.000000    -0.500000     0.000000     0.000000
   19     1.000000   180.000000     0.000000     0.000000     1.000000     0.000000     0.000000    -0.500000
   20    -1.000000   180.000000     0.000000     0.000000     1.000000     0.000000     0.000000    -0.500000
   21     1.000000   120.000000    -0.577350     0.577350     0.577350     0.000000     0.000000    -0.500000
   22    -1.000000   120.000000    -0.577350     0.577350     0.577350     0.000000     0.000000    -0.500000
   23     1.000000   120.000000    -0.577350     0.577350    -0.577350     0.000000     0.000000    -0.500000
   24    -1.000000   120.000000    -0.577350     0.577350    -0.577350     0.000000     0.000000    -0.500000
   25     1.000000    90.000000     0.000000     0.000000     1.000000     0.000000    -0.500000     0.000000
   26    -1.000000    90.000000     0.000000     0.000000     1.000000     0.000000    -0.500000     0.000000
   27     1.000000    90.000000    -1.000000     0.000000     0.000000     0.000000    -0.500000     0.000000
   28    -1.000000    90.000000    -1.000000     0.000000     0.000000     0.000000    -0.500000     0.000000
   29     1.000000   180.000000     0.707107     0.000000     0.707107     0.000000    -0.500000     0.000000
   30    -1.000000   180.000000     0.707107     0.000000     0.707107     0.000000    -0.500000     0.000000
   31     1.000000   120.000000     0.577350    -0.577350     0.577350    -0.500000     0.000000     0.000000
   32    -1.000000   120.000000     0.577350    -0.577350     0.577350    -0.500000     0.000000     0.000000
   33     1.000000   120.000000    -0.577350    -0.577350     0.577350    -0.500000     0.000000     0.000000
   34    -1.000000   120.000000    -0.577350    -0.577350     0.577350    -0.500000     0.000000     0.000000
   35     1.000000   180.000000     1.000000     0.000000     0.000000    -0.500000     0.000000     0.000000
   36    -1.000000   180.000000     1.000000     0.000000     0.000000    -0.500000     0.000000     0.000000
   37     1.000000    90.000000     0.000000    -1.000000     0.000000     0.000000     0.000000    -0.500000
   38    -1.000000    90.000000     0.000000    -1.000000     0.000000     0.000000     0.000000    -0.500000
   39     1.000000   180.000000     0.707107     0.707107     0.000000     0.000000     0.000000    -0.500000
   40    -1.000000   180.000000     0.707107     0.707107     0.000000     0.000000     0.000000    -0.500000
   41     1.000000    90.000000     1.000000     0.000000     0.000000     0.000000     0.000000    -0.500000
   42    -1.000000    90.000000     1.000000     0.000000     0.000000     0.000000     0.000000    -0.500000
   43     1.000000   120.000000     0.577350    -0.577350    -0.577350     0.000000    -0.500000     0.000000
   44    -1.000000   120.000000     0.577350    -0.577350    -0.577350     0.000000    -0.500000     0.000000
   45     1.000000   180.000000     0.000000     1.000000     0.000000     0.000000    -0.500000     0.000000
   46    -1.000000   180.000000     0.000000     1.000000     0.000000     0.000000    -0.500000     0.000000
   47     1.000000   120.000000     0.577350     0.577350    -0.577350     0.000000    -0.500000     0.000000
   48    -1.000000   120.000000     0.577350     0.577350    -0.577350     0.000000    -0.500000     0.000000
 TETIRR: Found   8388 inequivalent tetrahedra from   384000
 
 Subroutine IBZKPT returns following result:
 ===========================================
 
 Found   1661 irreducible k-points:
 
 Following reciprocal coordinates:
            Coordinates               Weight
  0.000000  0.000000  0.000000      1.000000
  0.025000  0.000000  0.000000      8.000000
  0.050000  0.000000  0.000000      8.000000
  0.075000  0.000000  0.000000      8.000000
  0.100000  0.000000  0.000000      8.000000
  0.125000  0.000000  0.000000      8.000000
  0.150000  0.000000  0.000000      8.000000
  0.175000  0.000000  0.000000      8.000000
  0.200000  0.000000  0.000000      8.000000
  0.225000  0.000000  0.000000      8.000000
  0.250000  0.000000  0.000000      8.000000
  0.275000  0.000000  0.000000      8.000000
  0.300000  0.000000  0.000000      8.000000
  0.325000  0.000000  0.000000      8.000000
  0.350000  0.000000  0.000000      8.000000
  0.375000  0.000000  0.000000      8.000000
  0.400000  0.000000  0.000000      8.000000
  0.425000  0.000000  0.000000      8.000000
  0.450000  0.000000  0.000000      8.000000
  0.475000  0.000000  0.000000      8.000000
  0.500000  0.000000  0.000000      4.000000
  0.025000  0.025000  0.000000      6.000000
  0.050000  0.025000  0.000000     24.000000
  0.075000  0.025000  0.000000     24.000000
  0.100000  0.025000  0.000000     24.000000
  0.125000  0.025000  0.000000     24.000000
  0.150000  0.025000  0.000000     24.000000
  0.175000  0.025000  0.000000     24.000000
  0.200000  0.025000  0.000000     24.000000
  0.225000  0.025000  0.000000     24.000000
  0.250000  0.025000  0.000000     24.000000
  0.275000  0.025000  0.000000     24.000000
  0.300000  0.025000  0.000000     24.000000
  0.325000  0.025000  0.000000     24.000000
  0.350000  0.025000  0.000000     24.000000
  0.375000  0.025000  0.000000     24.000000
  0.400000  0.025000  0.000000     24.000000
  0.425000  0.025000  0.000000     24.000000
  0.450000  0.025000  0.000000     24.000000
  0.475000  0.025000  0.000000     24.000000
  0.500000  0.025000  0.000000     24.000000
 -0.475000  0.025000  0.000000     24.000000
 -0.450000  0.025000  0.000000     24.000000
 -0.425000  0.025000  0.000000     24.000000
 -0.400000  0.025000  0.000000     24.000000
 -0.375000  0.025000  0.000000     24.000000
 -0.350000  0.025000  0.000000     24.000000
 -0.325000  0.025000  0.000000     24.000000
 -0.300000  0.025000  0.000000     24.000000
 -0.275000  0.025000  0.000000     24.000000
 -0.250000  0.025000  0.000000     24.000000
 -0.225000  0.025000  0.000000     24.000000
 -0.200000  0.025000  0.000000     24.000000
 -0.175000  0.025000  0.000000     24.000000
 -0.150000  0.025000  0.000000     24.000000
 -0.125000  0.025000  0.000000     24.000000
 -0.100000  0.025000  0.000000     24.000000
 -0.075000  0.025000  0.000000     24.000000
 -0.050000  0.025000  0.000000     24.000000
 -0.025000  0.025000  0.000000     12.000000
  0.050000  0.050000  0.000000      6.000000
  0.075000  0.050000  0.000000     24.000000
  0.100000  0.050000  0.000000     24.000000
  0.125000  0.050000  0.000000     24.000000
  0.150000  0.050000  0.000000     24.000000
  0.175000  0.050000  0.000000     24.000000
  0.200000  0.050000  0.000000     24.000000
  0.225000  0.050000  0.000000     24.000000
  0.250000  0.050000  0.000000     24.000000
  0.275000  0.050000  0.000000     24.000000
  0.300000  0.050000  0.000000     24.000000
  0.325000  0.050000  0.000000     24.000000
  0.350000  0.050000  0.000000     24.000000
  0.375000  0.050000  0.000000     24.000000
  0.400000  0.050000  0.000000     24.000000
  0.425000  0.050000  0.000000     24.000000
  0.450000  0.050000  0.000000     24.000000
  0.475000  0.050000  0.000000     24.000000
  0.500000  0.050000  0.000000     24.000000
 -0.475000  0.050000  0.000000     24.000000
 -0.450000  0.050000  0.000000     24.000000
 -0.425000  0.050000  0.000000     24.000000
 -0.400000  0.050000  0.000000     24.000000
 -0.375000  0.050000  0.000000     24.000000
 -0.350000  0.050000  0.000000     24.000000
 -0.325000  0.050000  0.000000     24.000000
 -0.300000  0.050000  0.000000     24.000000
 -0.275000  0.050000  0.000000     24.000000
 -0.250000  0.050000  0.000000     24.000000
 -0.225000  0.050000  0.000000     24.000000
 -0.200000  0.050000  0.000000     24.000000
 -0.175000  0.050000  0.000000     24.000000
 -0.150000  0.050000  0.000000     24.000000
 -0.125000  0.050000  0.000000     24.000000
 -0.100000  0.050000  0.000000     24.000000
 -0.075000  0.050000  0.000000     24.000000
 -0.050000  0.050000  0.000000     12.000000
  0.075000  0.075000  0.000000      6.000000
  0.100000  0.075000  0.000000     24.000000
  0.125000  0.075000  0.000000     24.000000
  0.150000  0.075000  0.000000     24.000000
  0.175000  0.075000  0.000000     24.000000
  0.200000  0.075000  0.000000     24.000000
  0.225000  0.075000  0.000000     24.000000
  0.250000  0.075000  0.000000     24.000000
  0.275000  0.075000  0.000000     24.000000
  0.300000  0.075000  0.000000     24.000000
  0.325000  0.075000  0.000000     24.000000
  0.350000  0.075000  0.000000     24.000000
  0.375000  0.075000  0.000000     24.000000
  0.400000  0.075000  0.000000     24.000000
  0.425000  0.075000  0.000000     24.000000
  0.450000  0.075000  0.000000     24.000000
  0.475000  0.075000  0.000000     24.000000
  0.500000  0.075000  0.000000     24.000000
 -0.475000  0.075000  0.000000     24.000000
 -0.450000  0.075000  0.000000     24.000000
 -0.425000  0.075000  0.000000     24.000000
 -0.400000  0.075000  0.000000     24.000000
 -0.375000  0.075000  0.000000     24.000000
 -0.350000  0.075000  0.000000     24.000000
 -0.325000  0.075000  0.000000     24.000000
 -0.300000  0.075000  0.000000     24.000000
 -0.275000  0.075000  0.000000     24.000000
 -0.250000  0.075000  0.000000     24.000000
 -0.225000  0.075000  0.000000     24.000000
 -0.200000  0.075000  0.000000     24.000000
 -0.175000  0.075000  0.000000     24.000000
 -0.150000  0.075000  0.000000     24.000000
 -0.125000  0.075000  0.000000     24.000000
 -0.100000  0.075000  0.000000     24.000000
 -0.075000  0.075000  0.000000     12.000000
  0.100000  0.100000  0.000000      6.000000
  0.125000  0.100000  0.000000     24.000000
  0.150000  0.100000  0.000000     24.000000
  0.175000  0.100000  0.000000     24.000000
  0.200000  0.100000  0.000000     24.000000
  0.225000  0.100000  0.000000     24.000000
  0.250000  0.100000  0.000000     24.000000
  0.275000  0.100000  0.000000     24.000000
  0.300000  0.100000  0.000000     24.000000
  0.325000  0.100000  0.000000     24.000000
  0.350000  0.100000  0.000000     24.000000
  0.375000  0.100000  0.000000     24.000000
  0.400000  0.100000  0.000000     24.000000
  0.425000  0.100000  0.000000     24.000000
  0.450000  0.100000  0.000000     24.000000
  0.475000  0.100000  0.000000     24.000000
  0.500000  0.100000  0.000000     24.000000
 -0.475000  0.100000  0.000000     24.000000
 -0.450000  0.100000  0.000000     24.000000
 -0.425000  0.100000  0.000000     24.000000
 -0.400000  0.100000  0.000000     24.000000
 -0.375000  0.100000  0.000000     24.000000
 -0.350000  0.100000  0.000000     24.000000
 -0.325000  0.100000  0.000000     24.000000
 -0.300000  0.100000  0.000000     24.000000
 -0.275000  0.100000  0.000000     24.000000
 -0.250000  0.100000  0.000000     24.000000
 -0.225000  0.100000  0.000000     24.000000
 -0.200000  0.100000  0.000000     24.000000
 -0.175000  0.100000  0.000000     24.000000
 -0.150000  0.100000  0.000000     24.000000
 -0.125000  0.100000  0.000000     24.000000
 -0.100000  0.100000  0.000000     12.000000
  0.125000  0.125000  0.000000      6.000000
  0.150000  0.125000  0.000000     24.000000
  0.175000  0.125000  0.000000     24.000000
  0.200000  0.125000  0.000000     24.000000
  0.225000  0.125000  0.000000     24.000000
  0.250000  0.125000  0.000000     24.000000
  0.275000  0.125000  0.000000     24.000000
  0.300000  0.125000  0.000000     24.000000
  0.325000  0.125000  0.000000     24.000000
  0.350000  0.125000  0.000000     24.000000
  0.375000  0.125000  0.000000     24.000000
  0.400000  0.125000  0.000000     24.000000
  0.425000  0.125000  0.000000     24.000000
  0.450000  0.125000  0.000000     24.000000
  0.475000  0.125000  0.000000     24.000000
  0.500000  0.125000  0.000000     24.000000
 -0.475000  0.125000  0.000000     24.000000
 -0.450000  0.125000  0.000000     24.000000
 -0.425000  0.125000  0.000000     24.000000
 -0.400000  0.125000  0.000000     24.000000
 -0.375000  0.125000  0.000000     24.000000
 -0.350000  0.125000  0.000000     24.000000
 -0.325000  0.125000  0.000000     24.000000
 -0.300000  0.125000  0.000000     24.000000
 -0.275000  0.125000  0.000000     24.000000
 -0.250000  0.125000  0.000000     24.000000
 -0.225000  0.125000  0.000000     24.000000
 -0.200000  0.125000  0.000000     24.000000
 -0.175000  0.125000  0.000000     24.000000
 -0.150000  0.125000  0.000000     24.000000
 -0.125000  0.125000  0.000000     12.000000
  0.150000  0.150000  0.000000      6.000000
  0.175000  0.150000  0.000000     24.000000
  0.200000  0.150000  0.000000     24.000000
  0.225000  0.150000  0.000000     24.000000
  0.250000  0.150000  0.000000     24.000000
  0.275000  0.150000  0.000000     24.000000
  0.300000  0.150000  0.000000     24.000000
  0.325000  0.150000  0.000000     24.000000
  0.350000  0.150000  0.000000     24.000000
  0.375000  0.150000  0.000000     24.000000
  0.400000  0.150000  0.000000     24.000000
  0.425000  0.150000  0.000000     24.000000
  0.450000  0.150000  0.000000     24.000000
  0.475000  0.150000  0.000000     24.000000
  0.500000  0.150000  0.000000     24.000000
 -0.475000  0.150000  0.000000     24.000000
 -0.450000  0.150000  0.000000     24.000000
 -0.425000  0.150000  0.000000     24.000000
 -0.400000  0.150000  0.000000     24.000000
 -0.375000  0.150000  0.000000     24.000000
 -0.350000  0.150000  0.000000     24.000000
 -0.325000  0.150000  0.000000     24.000000
 -0.300000  0.150000  0.000000     24.000000
 -0.275000  0.150000  0.000000     24.000000
 -0.250000  0.150000  0.000000     24.000000
 -0.225000  0.150000  0.000000     24.000000
 -0.200000  0.150000  0.000000     24.000000
 -0.175000  0.150000  0.000000     24.000000
 -0.150000  0.150000  0.000000     12.000000
  0.175000  0.175000  0.000000      6.000000
  0.200000  0.175000  0.000000     24.000000
  0.225000  0.175000  0.000000     24.000000
  0.250000  0.175000  0.000000     24.000000
  0.275000  0.175000  0.000000     24.000000
  0.300000  0.175000  0.000000     24.000000
  0.325000  0.175000  0.000000     24.000000
  0.350000  0.175000  0.000000     24.000000
  0.375000  0.175000  0.000000     24.000000
  0.400000  0.175000  0.000000     24.000000
  0.425000  0.175000  0.000000     24.000000
  0.450000  0.175000  0.000000     24.000000
  0.475000  0.175000  0.000000     24.000000
  0.500000  0.175000  0.000000     24.000000
 -0.475000  0.175000  0.000000     24.000000
 -0.450000  0.175000  0.000000     24.000000
 -0.425000  0.175000  0.000000     24.000000
 -0.400000  0.175000  0.000000     24.000000
 -0.375000  0.175000  0.000000     24.000000
 -0.350000  0.175000  0.000000     24.000000
 -0.325000  0.175000  0.000000     24.000000
 -0.300000  0.175000  0.000000     24.000000
 -0.275000  0.175000  0.000000     24.000000
 -0.250000  0.175000  0.000000     24.000000
 -0.225000  0.175000  0.000000     24.000000
 -0.200000  0.175000  0.000000     24.000000
 -0.175000  0.175000  0.000000     12.000000
  0.200000  0.200000  0.000000      6.000000
  0.225000  0.200000  0.000000     24.000000
  0.250000  0.200000  0.000000     24.000000
  0.275000  0.200000  0.000000     24.000000
  0.300000  0.200000  0.000000     24.000000
  0.325000  0.200000  0.000000     24.000000
  0.350000  0.200000  0.000000     24.000000
  0.375000  0.200000  0.000000     24.000000
  0.400000  0.200000  0.000000     24.000000
  0.425000  0.200000  0.000000     24.000000
  0.450000  0.200000  0.000000     24.000000
  0.475000  0.200000  0.000000     24.000000
  0.500000  0.200000  0.000000     24.000000
 -0.475000  0.200000  0.000000     24.000000
 -0.450000  0.200000  0.000000     24.000000
 -0.425000  0.200000  0.000000     24.000000
 -0.400000  0.200000  0.000000     24.000000
 -0.375000  0.200000  0.000000     24.000000
 -0.350000  0.200000  0.000000     24.000000
 -0.325000  0.200000  0.000000     24.000000
 -0.300000  0.200000  0.000000     24.000000
 -0.275000  0.200000  0.000000     24.000000
 -0.250000  0.200000  0.000000     24.000000
 -0.225000  0.200000  0.000000     24.000000
 -0.200000  0.200000  0.000000     12.000000
  0.225000  0.225000  0.000000      6.000000
  0.250000  0.225000  0.000000     24.000000
  0.275000  0.225000  0.000000     24.000000
  0.300000  0.225000  0.000000     24.000000
  0.325000  0.225000  0.000000     24.000000
  0.350000  0.225000  0.000000     24.000000
  0.375000  0.225000  0.000000     24.000000
  0.400000  0.225000  0.000000     24.000000
  0.425000  0.225000  0.000000     24.000000
  0.450000  0.225000  0.000000     24.000000
  0.475000  0.225000  0.000000     24.000000
  0.500000  0.225000  0.000000     24.000000
 -0.475000  0.225000  0.000000     24.000000
 -0.450000  0.225000  0.000000     24.000000
 -0.425000  0.225000  0.000000     24.000000
 -0.400000  0.225000  0.000000     24.000000
 -0.375000  0.225000  0.000000     24.000000
 -0.350000  0.225000  0.000000     24.000000
 -0.325000  0.225000  0.000000     24.000000
 -0.300000  0.225000  0.000000     24.000000
 -0.275000  0.225000  0.000000     24.000000
 -0.250000  0.225000  0.000000     24.000000
 -0.225000  0.225000  0.000000     12.000000
  0.250000  0.250000  0.000000      6.000000
  0.275000  0.250000  0.000000     24.000000
  0.300000  0.250000  0.000000     24.000000
  0.325000  0.250000  0.000000     24.000000
  0.350000  0.250000  0.000000     24.000000
  0.375000  0.250000  0.000000     24.000000
  0.400000  0.250000  0.000000     24.000000
  0.425000  0.250000  0.000000     24.000000
  0.450000  0.250000  0.000000     24.000000
  0.475000  0.250000  0.000000     24.000000
  0.500000  0.250000  0.000000     24.000000
 -0.475000  0.250000  0.000000     24.000000
 -0.450000  0.250000  0.000000     24.000000
 -0.425000  0.250000  0.000000     24.000000
 -0.400000  0.250000  0.000000     24.000000
 -0.375000  0.250000  0.000000     24.000000
 -0.350000  0.250000  0.000000     24.000000
 -0.325000  0.250000  0.000000     24.000000
 -0.300000  0.250000  0.000000     24.000000
 -0.275000  0.250000  0.000000     24.000000
 -0.250000  0.250000  0.000000     12.000000
  0.275000  0.275000  0.000000      6.000000
  0.300000  0.275000  0.000000     24.000000
  0.325000  0.275000  0.000000     24.000000
  0.350000  0.275000  0.000000     24.000000
  0.375000  0.275000  0.000000     24.000000
  0.400000  0.275000  0.000000     24.000000
  0.425000  0.275000  0.000000     24.000000
  0.450000  0.275000  0.000000     24.000000
  0.475000  0.275000  0.000000     24.000000
  0.500000  0.275000  0.000000     24.000000
 -0.475000  0.275000  0.000000     24.000000
 -0.450000  0.275000  0.000000     24.000000
 -0.425000  0.275000  0.000000     24.000000
 -0.400000  0.275000  0.000000     24.000000
 -0.375000  0.275000  0.000000     24.000000
 -0.350000  0.275000  0.000000     24.000000
 -0.325000  0.275000  0.000000     24.000000
 -0.300000  0.275000  0.000000     24.000000
 -0.275000  0.275000  0.000000     12.000000
  0.300000  0.300000  0.000000      6.000000
  0.325000  0.300000  0.000000     24.000000
  0.350000  0.300000  0.000000     24.000000
  0.375000  0.300000  0.000000     24.000000
  0.400000  0.300000  0.000000     24.000000
  0.425000  0.300000  0.000000     24.000000
  0.450000  0.300000  0.000000     24.000000
  0.475000  0.300000  0.000000     24.000000
  0.500000  0.300000  0.000000     24.000000
 -0.475000  0.300000  0.000000     24.000000
 -0.450000  0.300000  0.000000     24.000000
 -0.425000  0.300000  0.000000     24.000000
 -0.400000  0.300000  0.000000     24.000000
 -0.375000  0.300000  0.000000     24.000000
 -0.350000  0.300000  0.000000     24.000000
 -0.325000  0.300000  0.000000     24.000000
 -0.300000  0.300000  0.000000     12.000000
  0.325000  0.325000  0.000000      6.000000
  0.350000  0.325000  0.000000     24.000000
  0.375000  0.325000  0.000000     24.000000
  0.400000  0.325000  0.000000     24.000000
  0.425000  0.325000  0.000000     24.000000
  0.450000  0.325000  0.000000     24.000000
  0.475000  0.325000  0.000000     24.000000
  0.500000  0.325000  0.000000     24.000000
 -0.475000  0.325000  0.000000     24.000000
 -0.450000  0.325000  0.000000     24.000000
 -0.425000  0.325000  0.000000     24.000000
 -0.400000  0.325000  0.000000     24.000000
 -0.375000  0.325000  0.000000     24.000000
 -0.350000  0.325000  0.000000     24.000000
 -0.325000  0.325000  0.000000     12.000000
  0.350000  0.350000  0.000000      6.000000
  0.375000  0.350000  0.000000     24.000000
  0.400000  0.350000  0.000000     24.000000
  0.425000  0.350000  0.000000     24.000000
  0.450000  0.350000  0.000000     24.000000
  0.475000  0.350000  0.000000     24.000000
  0.500000  0.350000  0.000000     24.000000
 -0.475000  0.350000  0.000000     24.000000
 -0.450000  0.350000  0.000000     24.000000
 -0.425000  0.350000  0.000000     24.000000
 -0.400000  0.350000  0.000000     24.000000
 -0.375000  0.350000  0.000000     24.000000
 -0.350000  0.350000  0.000000     12.000000
  0.375000  0.375000  0.000000      6.000000
  0.400000  0.375000  0.000000     24.000000
  0.425000  0.375000  0.000000     24.000000
  0.450000  0.375000  0.000000     24.000000
  0.475000  0.375000  0.000000     24.000000
  0.500000  0.375000  0.000000     24.000000
 -0.475000  0.375000  0.000000     24.000000
 -0.450000  0.375000  0.000000     24.000000
 -0.425000  0.375000  0.000000     24.000000
 -0.400000  0.375000  0.000000     24.000000
 -0.375000  0.375000  0.000000     12.000000
  0.400000  0.400000  0.000000      6.000000
  0.425000  0.400000  0.000000     24.000000
  0.450000  0.400000  0.000000     24.000000
  0.475000  0.400000  0.000000     24.000000
  0.500000  0.400000  0.000000     24.000000
 -0.475000  0.400000  0.000000     24.000000
 -0.450000  0.400000  0.000000     24.000000
 -0.425000  0.400000  0.000000     24.000000
 -0.400000  0.400000  0.000000     12.000000
  0.425000  0.425000  0.000000      6.000000
  0.450000  0.425000  0.000000     24.000000
  0.475000  0.425000  0.000000     24.000000
  0.500000  0.425000  0.000000     24.000000
 -0.475000  0.425000  0.000000     24.000000
 -0.450000  0.425000  0.000000     24.000000
 -0.425000  0.425000  0.000000     12.000000
  0.450000  0.450000  0.000000      6.000000
  0.475000  0.450000  0.000000     24.000000
  0.500000  0.450000  0.000000     24.000000
 -0.475000  0.450000  0.000000     24.000000
 -0.450000  0.450000  0.000000     12.000000
  0.475000  0.475000  0.000000      6.000000
  0.500000  0.475000  0.000000     24.000000
 -0.475000  0.475000  0.000000     12.000000
  0.500000  0.500000  0.000000      3.000000
  0.075000  0.050000  0.025000     24.000000
  0.100000  0.050000  0.025000     48.000000
  0.125000  0.050000  0.025000     48.000000
  0.150000  0.050000  0.025000     48.000000
  0.175000  0.050000  0.025000     48.000000
  0.200000  0.050000  0.025000     48.000000
  0.225000  0.050000  0.025000     48.000000
  0.250000  0.050000  0.025000     48.000000
  0.275000  0.050000  0.025000     48.000000
  0.300000  0.050000  0.025000     48.000000
  0.325000  0.050000  0.025000     48.000000
  0.350000  0.050000  0.025000     48.000000
  0.375000  0.050000  0.025000     48.000000
  0.400000  0.050000  0.025000     48.000000
  0.425000  0.050000  0.025000     48.000000
  0.450000  0.050000  0.025000     48.000000
  0.475000  0.050000  0.025000     48.000000
  0.500000  0.050000  0.025000     48.000000
 -0.475000  0.050000  0.025000     24.000000
  0.100000  0.075000  0.025000     24.000000
  0.125000  0.075000  0.025000     48.000000
  0.150000  0.075000  0.025000     48.000000
  0.175000  0.075000  0.025000     48.000000
  0.200000  0.075000  0.025000     48.000000
  0.225000  0.075000  0.025000     48.000000
  0.250000  0.075000  0.025000     48.000000
  0.275000  0.075000  0.025000     48.000000
  0.300000  0.075000  0.025000     48.000000
  0.325000  0.075000  0.025000     48.000000
  0.350000  0.075000  0.025000     48.000000
  0.375000  0.075000  0.025000     48.000000
  0.400000  0.075000  0.025000     48.000000
  0.425000  0.075000  0.025000     48.000000
  0.450000  0.075000  0.025000     48.000000
  0.475000  0.075000  0.025000     48.000000
  0.500000  0.075000  0.025000     48.000000
 -0.475000  0.075000  0.025000     48.000000
 -0.450000  0.075000  0.025000     48.000000
 -0.425000  0.075000  0.025000     48.000000
 -0.400000  0.075000  0.025000     48.000000
 -0.375000  0.075000  0.025000     48.000000
 -0.350000  0.075000  0.025000     48.000000
 -0.325000  0.075000  0.025000     48.000000
 -0.300000  0.075000  0.025000     48.000000
 -0.275000  0.075000  0.025000     48.000000
 -0.250000  0.075000  0.025000     48.000000
 -0.225000  0.075000  0.025000     48.000000
 -0.200000  0.075000  0.025000     48.000000
 -0.175000  0.075000  0.025000     48.000000
 -0.150000  0.075000  0.025000     48.000000
 -0.125000  0.075000  0.025000     48.000000
 -0.100000  0.075000  0.025000     48.000000
 -0.075000  0.075000  0.025000     48.000000
 -0.050000  0.075000  0.025000     24.000000
  0.125000  0.100000  0.025000     24.000000
  0.150000  0.100000  0.025000     48.000000
  0.175000  0.100000  0.025000     48.000000
  0.200000  0.100000  0.025000     48.000000
  0.225000  0.100000  0.025000     48.000000
  0.250000  0.100000  0.025000     48.000000
  0.275000  0.100000  0.025000     48.000000
  0.300000  0.100000  0.025000     48.000000
  0.325000  0.100000  0.025000     48.000000
  0.350000  0.100000  0.025000     48.000000
  0.375000  0.100000  0.025000     48.000000
  0.400000  0.100000  0.025000     48.000000
  0.425000  0.100000  0.025000     48.000000
  0.450000  0.100000  0.025000     48.000000
  0.475000  0.100000  0.025000     48.000000
  0.500000  0.100000  0.025000     48.000000
 -0.475000  0.100000  0.025000     48.000000
 -0.450000  0.100000  0.025000     48.000000
 -0.425000  0.100000  0.025000     48.000000
 -0.400000  0.100000  0.025000     48.000000
 -0.375000  0.100000  0.025000     48.000000
 -0.350000  0.100000  0.025000     48.000000
 -0.325000  0.100000  0.025000     48.000000
 -0.300000  0.100000  0.025000     48.000000
 -0.275000  0.100000  0.025000     48.000000
 -0.250000  0.100000  0.025000     48.000000
 -0.225000  0.100000  0.025000     48.000000
 -0.200000  0.100000  0.025000     48.000000
 -0.175000  0.100000  0.025000     48.000000
 -0.150000  0.100000  0.025000     48.000000
 -0.125000  0.100000  0.025000     48.000000
 -0.100000  0.100000  0.025000     48.000000
 -0.075000  0.100000  0.025000     24.000000
  0.150000  0.125000  0.025000     24.000000
  0.175000  0.125000  0.025000     48.000000
  0.200000  0.125000  0.025000     48.000000
  0.225000  0.125000  0.025000     48.000000
  0.250000  0.125000  0.025000     48.000000
  0.275000  0.125000  0.025000     48.000000
  0.300000  0.125000  0.025000     48.000000
  0.325000  0.125000  0.025000     48.000000
  0.350000  0.125000  0.025000     48.000000
  0.375000  0.125000  0.025000     48.000000
  0.400000  0.125000  0.025000     48.000000
  0.425000  0.125000  0.025000     48.000000
  0.450000  0.125000  0.025000     48.000000
  0.475000  0.125000  0.025000     48.000000
  0.500000  0.125000  0.025000     48.000000
 -0.475000  0.125000  0.025000     48.000000
 -0.450000  0.125000  0.025000     48.000000
 -0.425000  0.125000  0.025000     48.000000
 -0.400000  0.125000  0.025000     48.000000
 -0.375000  0.125000  0.025000     48.000000
 -0.350000  0.125000  0.025000     48.000000
 -0.325000  0.125000  0.025000     48.000000
 -0.300000  0.125000  0.025000     48.000000
 -0.275000  0.125000  0.025000     48.000000
 -0.250000  0.125000  0.025000     48.000000
 -0.225000  0.125000  0.025000     48.000000
 -0.200000  0.125000  0.025000     48.000000
 -0.175000  0.125000  0.025000     48.000000
 -0.150000  0.125000  0.025000     48.000000
 -0.125000  0.125000  0.025000     48.000000
 -0.100000  0.125000  0.025000     24.000000
  0.175000  0.150000  0.025000     24.000000
  0.200000  0.150000  0.025000     48.000000
  0.225000  0.150000  0.025000     48.000000
  0.250000  0.150000  0.025000     48.000000
  0.275000  0.150000  0.025000     48.000000
  0.300000  0.150000  0.025000     48.000000
  0.325000  0.150000  0.025000     48.000000
  0.350000  0.150000  0.025000     48.000000
  0.375000  0.150000  0.025000     48.000000
  0.400000  0.150000  0.025000     48.000000
  0.425000  0.150000  0.025000     48.000000
  0.450000  0.150000  0.025000     48.000000
  0.475000  0.150000  0.025000     48.000000
  0.500000  0.150000  0.025000     48.000000
 -0.475000  0.150000  0.025000     48.000000
 -0.450000  0.150000  0.025000     48.000000
 -0.425000  0.150000  0.025000     48.000000
 -0.400000  0.150000  0.025000     48.000000
 -0.375000  0.150000  0.025000     48.000000
 -0.350000  0.150000  0.025000     48.000000
 -0.325000  0.150000  0.025000     48.000000
 -0.300000  0.150000  0.025000     48.000000
 -0.275000  0.150000  0.025000     48.000000
 -0.250000  0.150000  0.025000     48.000000
 -0.225000  0.150000  0.025000     48.000000
 -0.200000  0.150000  0.025000     48.000000
 -0.175000  0.150000  0.025000     48.000000
 -0.150000  0.150000  0.025000     48.000000
 -0.125000  0.150000  0.025000     24.000000
  0.200000  0.175000  0.025000     24.000000
  0.225000  0.175000  0.025000     48.000000
  0.250000  0.175000  0.025000     48.000000
  0.275000  0.175000  0.025000     48.000000
  0.300000  0.175000  0.025000     48.000000
  0.325000  0.175000  0.025000     48.000000
  0.350000  0.175000  0.025000     48.000000
  0.375000  0.175000  0.025000     48.000000
  0.400000  0.175000  0.025000     48.000000
  0.425000  0.175000  0.025000     48.000000
  0.450000  0.175000  0.025000     48.000000
  0.475000  0.175000  0.025000     48.000000
  0.500000  0.175000  0.025000     48.000000
 -0.475000  0.175000  0.025000     48.000000
 -0.450000  0.175000  0.025000     48.000000
 -0.425000  0.175000  0.025000     48.000000
 -0.400000  0.175000  0.025000     48.000000
 -0.375000  0.175000  0.025000     48.000000
 -0.350000  0.175000  0.025000     48.000000
 -0.325000  0.175000  0.025000     48.000000
 -0.300000  0.175000  0.025000     48.000000
 -0.275000  0.175000  0.025000     48.000000
 -0.250000  0.175000  0.025000     48.000000
 -0.225000  0.175000  0.025000     48.000000
 -0.200000  0.175000  0.025000     48.000000
 -0.175000  0.175000  0.025000     48.000000
 -0.150000  0.175000  0.025000     24.000000
  0.225000  0.200000  0.025000     24.000000
  0.250000  0.200000  0.025000     48.000000
  0.275000  0.200000  0.025000     48.000000
  0.300000  0.200000  0.025000     48.000000
  0.325000  0.200000  0.025000     48.000000
  0.350000  0.200000  0.025000     48.000000
  0.375000  0.200000  0.025000     48.000000
  0.400000  0.200000  0.025000     48.000000
  0.425000  0.200000  0.025000     48.000000
  0.450000  0.200000  0.025000     48.000000
  0.475000  0.200000  0.025000     48.000000
  0.500000  0.200000  0.025000     48.000000
 -0.475000  0.200000  0.025000     48.000000
 -0.450000  0.200000  0.025000     48.000000
 -0.425000  0.200000  0.025000     48.000000
 -0.400000  0.200000  0.025000     48.000000
 -0.375000  0.200000  0.025000     48.000000
 -0.350000  0.200000  0.025000     48.000000
 -0.325000  0.200000  0.025000     48.000000
 -0.300000  0.200000  0.025000     48.000000
 -0.275000  0.200000  0.025000     48.000000
 -0.250000  0.200000  0.025000     48.000000
 -0.225000  0.200000  0.025000     48.000000
 -0.200000  0.200000  0.025000     48.000000
 -0.175000  0.200000  0.025000     24.000000
  0.250000  0.225000  0.025000     24.000000
  0.275000  0.225000  0.025000     48.000000
  0.300000  0.225000  0.025000     48.000000
  0.325000  0.225000  0.025000     48.000000
  0.350000  0.225000  0.025000     48.000000
  0.375000  0.225000  0.025000     48.000000
  0.400000  0.225000  0.025000     48.000000
  0.425000  0.225000  0.025000     48.000000
  0.450000  0.225000  0.025000     48.000000
  0.475000  0.225000  0.025000     48.000000
  0.500000  0.225000  0.025000     48.000000
 -0.475000  0.225000  0.025000     48.000000
 -0.450000  0.225000  0.025000     48.000000
 -0.425000  0.225000  0.025000     48.000000
 -0.400000  0.225000  0.025000     48.000000
 -0.375000  0.225000  0.025000     48.000000
 -0.350000  0.225000  0.025000     48.000000
 -0.325000  0.225000  0.025000     48.000000
 -0.300000  0.225000  0.025000     48.000000
 -0.275000  0.225000  0.025000     48.000000
 -0.250000  0.225000  0.025000     48.000000
 -0.225000  0.225000  0.025000     48.000000
 -0.200000  0.225000  0.025000     24.000000
  0.275000  0.250000  0.025000     24.000000
  0.300000  0.250000  0.025000     48.000000
  0.325000  0.250000  0.025000     48.000000
  0.350000  0.250000  0.025000     48.000000
  0.375000  0.250000  0.025000     48.000000
  0.400000  0.250000  0.025000     48.000000
  0.425000  0.250000  0.025000     48.000000
  0.450000  0.250000  0.025000     48.000000
  0.475000  0.250000  0.025000     48.000000
  0.500000  0.250000  0.025000     48.000000
 -0.475000  0.250000  0.025000     48.000000
 -0.450000  0.250000  0.025000     48.000000
 -0.425000  0.250000  0.025000     48.000000
 -0.400000  0.250000  0.025000     48.000000
 -0.375000  0.250000  0.025000     48.000000
 -0.350000  0.250000  0.025000     48.000000
 -0.325000  0.250000  0.025000     48.000000
 -0.300000  0.250000  0.025000     48.000000
 -0.275000  0.250000  0.025000     48.000000
 -0.250000  0.250000  0.025000     48.000000
 -0.225000  0.250000  0.025000     24.000000
  0.300000  0.275000  0.025000     24.000000
  0.325000  0.275000  0.025000     48.000000
  0.350000  0.275000  0.025000     48.000000
  0.375000  0.275000  0.025000     48.000000
  0.400000  0.275000  0.025000     48.000000
  0.425000  0.275000  0.025000     48.000000
  0.450000  0.275000  0.025000     48.000000
  0.475000  0.275000  0.025000     48.000000
  0.500000  0.275000  0.025000     48.000000
 -0.475000  0.275000  0.025000     48.000000
 -0.450000  0.275000  0.025000     48.000000
 -0.425000  0.275000  0.025000     48.000000
 -0.400000  0.275000  0.025000     48.000000
 -0.375000  0.275000  0.025000     48.000000
 -0.350000  0.275000  0.025000     48.000000
 -0.325000  0.275000  0.025000     48.000000
 -0.300000  0.275000  0.025000     48.000000
 -0.275000  0.275000  0.025000     48.000000
 -0.250000  0.275000  0.025000     24.000000
  0.325000  0.300000  0.025000     24.000000
  0.350000  0.300000  0.025000     48.000000
  0.375000  0.300000  0.025000     48.000000
  0.400000  0.300000  0.025000     48.000000
  0.425000  0.300000  0.025000     48.000000
  0.450000  0.300000  0.025000     48.000000
  0.475000  0.300000  0.025000     48.000000
  0.500000  0.300000  0.025000     48.000000
 -0.475000  0.300000  0.025000     48.000000
 -0.450000  0.300000  0.025000     48.000000
 -0.425000  0.300000  0.025000     48.000000
 -0.400000  0.300000  0.025000     48.000000
 -0.375000  0.300000  0.025000     48.000000
 -0.350000  0.300000  0.025000     48.000000
 -0.325000  0.300000  0.025000     48.000000
 -0.300000  0.300000  0.025000     48.000000
 -0.275000  0.300000  0.025000     24.000000
  0.350000  0.325000  0.025000     24.000000
  0.375000  0.325000  0.025000     48.000000
  0.400000  0.325000  0.025000     48.000000
  0.425000  0.325000  0.025000     48.000000
  0.450000  0.325000  0.025000     48.000000
  0.475000  0.325000  0.025000     48.000000
  0.500000  0.325000  0.025000     48.000000
 -0.475000  0.325000  0.025000     48.000000
 -0.450000  0.325000  0.025000     48.000000
 -0.425000  0.325000  0.025000     48.000000
 -0.400000  0.325000  0.025000     48.000000
 -0.375000  0.325000  0.025000     48.000000
 -0.350000  0.325000  0.025000     48.000000
 -0.325000  0.325000  0.025000     48.000000
 -0.300000  0.325000  0.025000     24.000000
  0.375000  0.350000  0.025000     24.000000
  0.400000  0.350000  0.025000     48.000000
  0.425000  0.350000  0.025000     48.000000
  0.450000  0.350000  0.025000     48.000000
  0.475000  0.350000  0.025000     48.000000
  0.500000  0.350000  0.025000     48.000000
 -0.475000  0.350000  0.025000     48.000000
 -0.450000  0.350000  0.025000     48.000000
 -0.425000  0.350000  0.025000     48.000000
 -0.400000  0.350000  0.025000     48.000000
 -0.375000  0.350000  0.025000     48.000000
 -0.350000  0.350000  0.025000     48.000000
 -0.325000  0.350000  0.025000     24.000000
  0.400000  0.375000  0.025000     24.000000
  0.425000  0.375000  0.025000     48.000000
  0.450000  0.375000  0.025000     48.000000
  0.475000  0.375000  0.025000     48.000000
  0.500000  0.375000  0.025000     48.000000
 -0.475000  0.375000  0.025000     48.000000
 -0.450000  0.375000  0.025000     48.000000
 -0.425000  0.375000  0.025000     48.000000
 -0.400000  0.375000  0.025000     48.000000
 -0.375000  0.375000  0.025000     48.000000
 -0.350000  0.375000  0.025000     24.000000
  0.425000  0.400000  0.025000     24.000000
  0.450000  0.400000  0.025000     48.000000
  0.475000  0.400000  0.025000     48.000000
  0.500000  0.400000  0.025000     48.000000
 -0.475000  0.400000  0.025000     48.000000
 -0.450000  0.400000  0.025000     48.000000
 -0.425000  0.400000  0.025000     48.000000
 -0.400000  0.400000  0.025000     48.000000
 -0.375000  0.400000  0.025000     24.000000
  0.450000  0.425000  0.025000     24.000000
  0.475000  0.425000  0.025000     48.000000
  0.500000  0.425000  0.025000     48.000000
 -0.475000  0.425000  0.025000     48.000000
 -0.450000  0.425000  0.025000     48.000000
 -0.425000  0.425000  0.025000     48.000000
 -0.400000  0.425000  0.025000     24.000000
  0.475000  0.450000  0.025000     24.000000
  0.500000  0.450000  0.025000     48.000000
 -0.475000  0.450000  0.025000     48.000000
 -0.450000  0.450000  0.025000     48.000000
 -0.425000  0.450000  0.025000     24.000000
  0.500000  0.475000  0.025000     24.000000
 -0.475000  0.475000  0.025000     48.000000
 -0.450000  0.475000  0.025000     24.000000
 -0.475000  0.500000  0.025000     12.000000
  0.150000  0.100000  0.050000     24.000000
  0.175000  0.100000  0.050000     48.000000
  0.200000  0.100000  0.050000     48.000000
  0.225000  0.100000  0.050000     48.000000
  0.250000  0.100000  0.050000     48.000000
  0.275000  0.100000  0.050000     48.000000
  0.300000  0.100000  0.050000     48.000000
  0.325000  0.100000  0.050000     48.000000
  0.350000  0.100000  0.050000     48.000000
  0.375000  0.100000  0.050000     48.000000
  0.400000  0.100000  0.050000     48.000000
  0.425000  0.100000  0.050000     48.000000
  0.450000  0.100000  0.050000     48.000000
  0.475000  0.100000  0.050000     48.000000
  0.500000  0.100000  0.050000     48.000000
 -0.475000  0.100000  0.050000     48.000000
 -0.450000  0.100000  0.050000     24.000000
  0.175000  0.125000  0.050000     24.000000
  0.200000  0.125000  0.050000     48.000000
  0.225000  0.125000  0.050000     48.000000
  0.250000  0.125000  0.050000     48.000000
  0.275000  0.125000  0.050000     48.000000
  0.300000  0.125000  0.050000     48.000000
  0.325000  0.125000  0.050000     48.000000
  0.350000  0.125000  0.050000     48.000000
  0.375000  0.125000  0.050000     48.000000
  0.400000  0.125000  0.050000     48.000000
  0.425000  0.125000  0.050000     48.000000
  0.450000  0.125000  0.050000     48.000000
  0.475000  0.125000  0.050000     48.000000
  0.500000  0.125000  0.050000     48.000000
 -0.475000  0.125000  0.050000     48.000000
 -0.450000  0.125000  0.050000     48.000000
 -0.425000  0.125000  0.050000     48.000000
 -0.400000  0.125000  0.050000     48.000000
 -0.375000  0.125000  0.050000     48.000000
 -0.350000  0.125000  0.050000     48.000000
 -0.325000  0.125000  0.050000     48.000000
 -0.300000  0.125000  0.050000     48.000000
 -0.275000  0.125000  0.050000     48.000000
 -0.250000  0.125000  0.050000     48.000000
 -0.225000  0.125000  0.050000     48.000000
 -0.200000  0.125000  0.050000     48.000000
 -0.175000  0.125000  0.050000     48.000000
 -0.150000  0.125000  0.050000     48.000000
 -0.125000  0.125000  0.050000     48.000000
 -0.100000  0.125000  0.050000     48.000000
 -0.075000  0.125000  0.050000     24.000000
  0.200000  0.150000  0.050000     24.000000
  0.225000  0.150000  0.050000     48.000000
  0.250000  0.150000  0.050000     48.000000
  0.275000  0.150000  0.050000     48.000000
  0.300000  0.150000  0.050000     48.000000
  0.325000  0.150000  0.050000     48.000000
  0.350000  0.150000  0.050000     48.000000
  0.375000  0.150000  0.050000     48.000000
  0.400000  0.150000  0.050000     48.000000
  0.425000  0.150000  0.050000     48.000000
  0.450000  0.150000  0.050000     48.000000
  0.475000  0.150000  0.050000     48.000000
  0.500000  0.150000  0.050000     48.000000
 -0.475000  0.150000  0.050000     48.000000
 -0.450000  0.150000  0.050000     48.000000
 -0.425000  0.150000  0.050000     48.000000
 -0.400000  0.150000  0.050000     48.000000
 -0.375000  0.150000  0.050000     48.000000
 -0.350000  0.150000  0.050000     48.000000
 -0.325000  0.150000  0.050000     48.000000
 -0.300000  0.150000  0.050000     48.000000
 -0.275000  0.150000  0.050000     48.000000
 -0.250000  0.150000  0.050000     48.000000
 -0.225000  0.150000  0.050000     48.000000
 -0.200000  0.150000  0.050000     48.000000
 -0.175000  0.150000  0.050000     48.000000
 -0.150000  0.150000  0.050000     48.000000
 -0.125000  0.150000  0.050000     48.000000
 -0.100000  0.150000  0.050000     24.000000
  0.225000  0.175000  0.050000     24.000000
  0.250000  0.175000  0.050000     48.000000
  0.275000  0.175000  0.050000     48.000000
  0.300000  0.175000  0.050000     48.000000
  0.325000  0.175000  0.050000     48.000000
  0.350000  0.175000  0.050000     48.000000
  0.375000  0.175000  0.050000     48.000000
  0.400000  0.175000  0.050000     48.000000
  0.425000  0.175000  0.050000     48.000000
  0.450000  0.175000  0.050000     48.000000
  0.475000  0.175000  0.050000     48.000000
  0.500000  0.175000  0.050000     48.000000
 -0.475000  0.175000  0.050000     48.000000
 -0.450000  0.175000  0.050000     48.000000
 -0.425000  0.175000  0.050000     48.000000
 -0.400000  0.175000  0.050000     48.000000
 -0.375000  0.175000  0.050000     48.000000
 -0.350000  0.175000  0.050000     48.000000
 -0.325000  0.175000  0.050000     48.000000
 -0.300000  0.175000  0.050000     48.000000
 -0.275000  0.175000  0.050000     48.000000
 -0.250000  0.175000  0.050000     48.000000
 -0.225000  0.175000  0.050000     48.000000
 -0.200000  0.175000  0.050000     48.000000
 -0.175000  0.175000  0.050000     48.000000
 -0.150000  0.175000  0.050000     48.000000
 -0.125000  0.175000  0.050000     24.000000
  0.250000  0.200000  0.050000     24.000000
  0.275000  0.200000  0.050000     48.000000
  0.300000  0.200000  0.050000     48.000000
  0.325000  0.200000  0.050000     48.000000
  0.350000  0.200000  0.050000     48.000000
  0.375000  0.200000  0.050000     48.000000
  0.400000  0.200000  0.050000     48.000000
  0.425000  0.200000  0.050000     48.000000
  0.450000  0.200000  0.050000     48.000000
  0.475000  0.200000  0.050000     48.000000
  0.500000  0.200000  0.050000     48.000000
 -0.475000  0.200000  0.050000     48.000000
 -0.450000  0.200000  0.050000     48.000000
 -0.425000  0.200000  0.050000     48.000000
 -0.400000  0.200000  0.050000     48.000000
 -0.375000  0.200000  0.050000     48.000000
 -0.350000  0.200000  0.050000     48.000000
 -0.325000  0.200000  0.050000     48.000000
 -0.300000  0.200000  0.050000     48.000000
 -0.275000  0.200000  0.050000     48.000000
 -0.250000  0.200000  0.050000     48.000000
 -0.225000  0.200000  0.050000     48.000000
 -0.200000  0.200000  0.050000     48.000000
 -0.175000  0.200000  0.050000     48.000000
 -0.150000  0.200000  0.050000     24.000000
  0.275000  0.225000  0.050000     24.000000
  0.300000  0.225000  0.050000     48.000000
  0.325000  0.225000  0.050000     48.000000
  0.350000  0.225000  0.050000     48.000000
  0.375000  0.225000  0.050000     48.000000
  0.400000  0.225000  0.050000     48.000000
  0.425000  0.225000  0.050000     48.000000
  0.450000  0.225000  0.050000     48.000000
  0.475000  0.225000  0.050000     48.000000
  0.500000  0.225000  0.050000     48.000000
 -0.475000  0.225000  0.050000     48.000000
 -0.450000  0.225000  0.050000     48.000000
 -0.425000  0.225000  0.050000     48.000000
 -0.400000  0.225000  0.050000     48.000000
 -0.375000  0.225000  0.050000     48.000000
 -0.350000  0.225000  0.050000     48.000000
 -0.325000  0.225000  0.050000     48.000000
 -0.300000  0.225000  0.050000     48.000000
 -0.275000  0.225000  0.050000     48.000000
 -0.250000  0.225000  0.050000     48.000000
 -0.225000  0.225000  0.050000     48.000000
 -0.200000  0.225000  0.050000     48.000000
 -0.175000  0.225000  0.050000     24.000000
  0.300000  0.250000  0.050000     24.000000
  0.325000  0.250000  0.050000     48.000000
  0.350000  0.250000  0.050000     48.000000
  0.375000  0.250000  0.050000     48.000000
  0.400000  0.250000  0.050000     48.000000
  0.425000  0.250000  0.050000     48.000000
  0.450000  0.250000  0.050000     48.000000
  0.475000  0.250000  0.050000     48.000000
  0.500000  0.250000  0.050000     48.000000
 -0.475000  0.250000  0.050000     48.000000
 -0.450000  0.250000  0.050000     48.000000
 -0.425000  0.250000  0.050000     48.000000
 -0.400000  0.250000  0.050000     48.000000
 -0.375000  0.250000  0.050000     48.000000
 -0.350000  0.250000  0.050000     48.000000
 -0.325000  0.250000  0.050000     48.000000
 -0.300000  0.250000  0.050000     48.000000
 -0.275000  0.250000  0.050000     48.000000
 -0.250000  0.250000  0.050000     48.000000
 -0.225000  0.250000  0.050000     48.000000
 -0.200000  0.250000  0.050000     24.000000
  0.325000  0.275000  0.050000     24.000000
  0.350000  0.275000  0.050000     48.000000
  0.375000  0.275000  0.050000     48.000000
  0.400000  0.275000  0.050000     48.000000
  0.425000  0.275000  0.050000     48.000000
  0.450000  0.275000  0.050000     48.000000
  0.475000  0.275000  0.050000     48.000000
  0.500000  0.275000  0.050000     48.000000
 -0.475000  0.275000  0.050000     48.000000
 -0.450000  0.275000  0.050000     48.000000
 -0.425000  0.275000  0.050000     48.000000
 -0.400000  0.275000  0.050000     48.000000
 -0.375000  0.275000  0.050000     48.000000
 -0.350000  0.275000  0.050000     48.000000
 -0.325000  0.275000  0.050000     48.000000
 -0.300000  0.275000  0.050000     48.000000
 -0.275000  0.275000  0.050000     48.000000
 -0.250000  0.275000  0.050000     48.000000
 -0.225000  0.275000  0.050000     24.000000
  0.350000  0.300000  0.050000     24.000000
  0.375000  0.300000  0.050000     48.000000
  0.400000  0.300000  0.050000     48.000000
  0.425000  0.300000  0.050000     48.000000
  0.450000  0.300000  0.050000     48.000000
  0.475000  0.300000  0.050000     48.000000
  0.500000  0.300000  0.050000     48.000000
 -0.475000  0.300000  0.050000     48.000000
 -0.450000  0.300000  0.050000     48.000000
 -0.425000  0.300000  0.050000     48.000000
 -0.400000  0.300000  0.050000     48.000000
 -0.375000  0.300000  0.050000     48.000000
 -0.350000  0.300000  0.050000     48.000000
 -0.325000  0.300000  0.050000     48.000000
 -0.300000  0.300000  0.050000     48.000000
 -0.275000  0.300000  0.050000     48.000000
 -0.250000  0.300000  0.050000     24.000000
  0.375000  0.325000  0.050000     24.000000
  0.400000  0.325000  0.050000     48.000000
  0.425000  0.325000  0.050000     48.000000
  0.450000  0.325000  0.050000     48.000000
  0.475000  0.325000  0.050000     48.000000
  0.500000  0.325000  0.050000     48.000000
 -0.475000  0.325000  0.050000     48.000000
 -0.450000  0.325000  0.050000     48.000000
 -0.425000  0.325000  0.050000     48.000000
 -0.400000  0.325000  0.050000     48.000000
 -0.375000  0.325000  0.050000     48.000000
 -0.350000  0.325000  0.050000     48.000000
 -0.325000  0.325000  0.050000     48.000000
 -0.300000  0.325000  0.050000     48.000000
 -0.275000  0.325000  0.050000     24.000000
  0.400000  0.350000  0.050000     24.000000
  0.425000  0.350000  0.050000     48.000000
  0.450000  0.350000  0.050000     48.000000
  0.475000  0.350000  0.050000     48.000000
  0.500000  0.350000  0.050000     48.000000
 -0.475000  0.350000  0.050000     48.000000
 -0.450000  0.350000  0.050000     48.000000
 -0.425000  0.350000  0.050000     48.000000
 -0.400000  0.350000  0.050000     48.000000
 -0.375000  0.350000  0.050000     48.000000
 -0.350000  0.350000  0.050000     48.000000
 -0.325000  0.350000  0.050000     48.000000
 -0.300000  0.350000  0.050000     24.000000
  0.425000  0.375000  0.050000     24.000000
  0.450000  0.375000  0.050000     48.000000
  0.475000  0.375000  0.050000     48.000000
  0.500000  0.375000  0.050000     48.000000
 -0.475000  0.375000  0.050000     48.000000
 -0.450000  0.375000  0.050000     48.000000
 -0.425000  0.375000  0.050000     48.000000
 -0.400000  0.375000  0.050000     48.000000
 -0.375000  0.375000  0.050000     48.000000
 -0.350000  0.375000  0.050000     48.000000
 -0.325000  0.375000  0.050000     24.000000
  0.450000  0.400000  0.050000     24.000000
  0.475000  0.400000  0.050000     48.000000
  0.500000  0.400000  0.050000     48.000000
 -0.475000  0.400000  0.050000     48.000000
 -0.450000  0.400000  0.050000     48.000000
 -0.425000  0.400000  0.050000     48.000000
 -0.400000  0.400000  0.050000     48.000000
 -0.375000  0.400000  0.050000     48.000000
 -0.350000  0.400000  0.050000     24.000000
  0.475000  0.425000  0.050000     24.000000
  0.500000  0.425000  0.050000     48.000000
 -0.475000  0.425000  0.050000     48.000000
 -0.450000  0.425000  0.050000     48.000000
 -0.425000  0.425000  0.050000     48.000000
 -0.400000  0.425000  0.050000     48.000000
 -0.375000  0.425000  0.050000     24.000000
  0.500000  0.450000  0.050000     24.000000
 -0.475000  0.450000  0.050000     48.000000
 -0.450000  0.450000  0.050000     48.000000
 -0.425000  0.450000  0.050000     48.000000
 -0.400000  0.450000  0.050000     24.000000
 -0.475000  0.475000  0.050000     24.000000
 -0.450000  0.475000  0.050000     48.000000
 -0.425000  0.475000  0.050000     24.000000
 -0.450000  0.500000  0.050000     12.000000
  0.225000  0.150000  0.075000     24.000000
  0.250000  0.150000  0.075000     48.000000
  0.275000  0.150000  0.075000     48.000000
  0.300000  0.150000  0.075000     48.000000
  0.325000  0.150000  0.075000     48.000000
  0.350000  0.150000  0.075000     48.000000
  0.375000  0.150000  0.075000     48.000000
  0.400000  0.150000  0.075000     48.000000
  0.425000  0.150000  0.075000     48.000000
  0.450000  0.150000  0.075000     48.000000
  0.475000  0.150000  0.075000     48.000000
  0.500000  0.150000  0.075000     48.000000
 -0.475000  0.150000  0.075000     48.000000
 -0.450000  0.150000  0.075000     48.000000
 -0.425000  0.150000  0.075000     24.000000
  0.250000  0.175000  0.075000     24.000000
  0.275000  0.175000  0.075000     48.000000
  0.300000  0.175000  0.075000     48.000000
  0.325000  0.175000  0.075000     48.000000
  0.350000  0.175000  0.075000     48.000000
  0.375000  0.175000  0.075000     48.000000
  0.400000  0.175000  0.075000     48.000000
  0.425000  0.175000  0.075000     48.000000
  0.450000  0.175000  0.075000     48.000000
  0.475000  0.175000  0.075000     48.000000
  0.500000  0.175000  0.075000     48.000000
 -0.475000  0.175000  0.075000     48.000000
 -0.450000  0.175000  0.075000     48.000000
 -0.425000  0.175000  0.075000     48.000000
 -0.400000  0.175000  0.075000     48.000000
 -0.375000  0.175000  0.075000     48.000000
 -0.350000  0.175000  0.075000     48.000000
 -0.325000  0.175000  0.075000     48.000000
 -0.300000  0.175000  0.075000     48.000000
 -0.275000  0.175000  0.075000     48.000000
 -0.250000  0.175000  0.075000     48.000000
 -0.225000  0.175000  0.075000     48.000000
 -0.200000  0.175000  0.075000     48.000000
 -0.175000  0.175000  0.075000     48.000000
 -0.150000  0.175000  0.075000     48.000000
 -0.125000  0.175000  0.075000     48.000000
 -0.100000  0.175000  0.075000     24.000000
  0.275000  0.200000  0.075000     24.000000
  0.300000  0.200000  0.075000     48.000000
  0.325000  0.200000  0.075000     48.000000
  0.350000  0.200000  0.075000     48.000000
  0.375000  0.200000  0.075000     48.000000
  0.400000  0.200000  0.075000     48.000000
  0.425000  0.200000  0.075000     48.000000
  0.450000  0.200000  0.075000     48.000000
  0.475000  0.200000  0.075000     48.000000
  0.500000  0.200000  0.075000     48.000000
 -0.475000  0.200000  0.075000     48.000000
 -0.450000  0.200000  0.075000     48.000000
 -0.425000  0.200000  0.075000     48.000000
 -0.400000  0.200000  0.075000     48.000000
 -0.375000  0.200000  0.075000     48.000000
 -0.350000  0.200000  0.075000     48.000000
 -0.325000  0.200000  0.075000     48.000000
 -0.300000  0.200000  0.075000     48.000000
 -0.275000  0.200000  0.075000     48.000000
 -0.250000  0.200000  0.075000     48.000000
 -0.225000  0.200000  0.075000     48.000000
 -0.200000  0.200000  0.075000     48.000000
 -0.175000  0.200000  0.075000     48.000000
 -0.150000  0.200000  0.075000     48.000000
 -0.125000  0.200000  0.075000     24.000000
  0.300000  0.225000  0.075000     24.000000
  0.325000  0.225000  0.075000     48.000000
  0.350000  0.225000  0.075000     48.000000
  0.375000  0.225000  0.075000     48.000000
  0.400000  0.225000  0.075000     48.000000
  0.425000  0.225000  0.075000     48.000000
  0.450000  0.225000  0.075000     48.000000
  0.475000  0.225000  0.075000     48.000000
  0.500000  0.225000  0.075000     48.000000
 -0.475000  0.225000  0.075000     48.000000
 -0.450000  0.225000  0.075000     48.000000
 -0.425000  0.225000  0.075000     48.000000
 -0.400000  0.225000  0.075000     48.000000
 -0.375000  0.225000  0.075000     48.000000
 -0.350000  0.225000  0.075000     48.000000
 -0.325000  0.225000  0.075000     48.000000
 -0.300000  0.225000  0.075000     48.000000
 -0.275000  0.225000  0.075000     48.000000
 -0.250000  0.225000  0.075000     48.000000
 -0.225000  0.225000  0.075000     48.000000
 -0.200000  0.225000  0.075000     48.000000
 -0.175000  0.225000  0.075000     48.000000
 -0.150000  0.225000  0.075000     24.000000
  0.325000  0.250000  0.075000     24.000000
  0.350000  0.250000  0.075000     48.000000
  0.375000  0.250000  0.075000     48.000000
  0.400000  0.250000  0.075000     48.000000
  0.425000  0.250000  0.075000     48.000000
  0.450000  0.250000  0.075000     48.000000
  0.475000  0.250000  0.075000     48.000000
  0.500000  0.250000  0.075000     48.000000
 -0.475000  0.250000  0.075000     48.000000
 -0.450000  0.250000  0.075000     48.000000
 -0.425000  0.250000  0.075000     48.000000
 -0.400000  0.250000  0.075000     48.000000
 -0.375000  0.250000  0.075000     48.000000
 -0.350000  0.250000  0.075000     48.000000
 -0.325000  0.250000  0.075000     48.000000
 -0.300000  0.250000  0.075000     48.000000
 -0.275000  0.250000  0.075000     48.000000
 -0.250000  0.250000  0.075000     48.000000
 -0.225000  0.250000  0.075000     48.000000
 -0.200000  0.250000  0.075000     48.000000
 -0.175000  0.250000  0.075000     24.000000
  0.350000  0.275000  0.075000     24.000000
  0.375000  0.275000  0.075000     48.000000
  0.400000  0.275000  0.075000     48.000000
  0.425000  0.275000  0.075000     48.000000
  0.450000  0.275000  0.075000     48.000000
  0.475000  0.275000  0.075000     48.000000
  0.500000  0.275000  0.075000     48.000000
 -0.475000  0.275000  0.075000     48.000000
 -0.450000  0.275000  0.075000     48.000000
 -0.425000  0.275000  0.075000     48.000000
 -0.400000  0.275000  0.075000     48.000000
 -0.375000  0.275000  0.075000     48.000000
 -0.350000  0.275000  0.075000     48.000000
 -0.325000  0.275000  0.075000     48.000000
 -0.300000  0.275000  0.075000     48.000000
 -0.275000  0.275000  0.075000     48.000000
 -0.250000  0.275000  0.075000     48.000000
 -0.225000  0.275000  0.075000     48.000000
 -0.200000  0.275000  0.075000     24.000000
  0.375000  0.300000  0.075000     24.000000
  0.400000  0.300000  0.075000     48.000000
  0.425000  0.300000  0.075000     48.000000
  0.450000  0.300000  0.075000     48.000000
  0.475000  0.300000  0.075000     48.000000
  0.500000  0.300000  0.075000     48.000000
 -0.475000  0.300000  0.075000     48.000000
 -0.450000  0.300000  0.075000     48.000000
 -0.425000  0.300000  0.075000     48.000000
 -0.400000  0.300000  0.075000     48.000000
 -0.375000  0.300000  0.075000     48.000000
 -0.350000  0.300000  0.075000     48.000000
 -0.325000  0.300000  0.075000     48.000000
 -0.300000  0.300000  0.075000     48.000000
 -0.275000  0.300000  0.075000     48.000000
 -0.250000  0.300000  0.075000     48.000000
 -0.225000  0.300000  0.075000     24.000000
  0.400000  0.325000  0.075000     24.000000
  0.425000  0.325000  0.075000     48.000000
  0.450000  0.325000  0.075000     48.000000
  0.475000  0.325000  0.075000     48.000000
  0.500000  0.325000  0.075000     48.000000
 -0.475000  0.325000  0.075000     48.000000
 -0.450000  0.325000  0.075000     48.000000
 -0.425000  0.325000  0.075000     48.000000
 -0.400000  0.325000  0.075000     48.000000
 -0.375000  0.325000  0.075000     48.000000
 -0.350000  0.325000  0.075000     48.000000
 -0.325000  0.325000  0.075000     48.000000
 -0.300000  0.325000  0.075000     48.000000
 -0.275000  0.325000  0.075000     48.000000
 -0.250000  0.325000  0.075000     24.000000
  0.425000  0.350000  0.075000     24.000000
  0.450000  0.350000  0.075000     48.000000
  0.475000  0.350000  0.075000     48.000000
  0.500000  0.350000  0.075000     48.000000
 -0.475000  0.350000  0.075000     48.000000
 -0.450000  0.350000  0.075000     48.000000
 -0.425000  0.350000  0.075000     48.000000
 -0.400000  0.350000  0.075000     48.000000
 -0.375000  0.350000  0.075000     48.000000
 -0.350000  0.350000  0.075000     48.000000
 -0.325000  0.350000  0.075000     48.000000
 -0.300000  0.350000  0.075000     48.000000
 -0.275000  0.350000  0.075000     24.000000
  0.450000  0.375000  0.075000     24.000000
  0.475000  0.375000  0.075000     48.000000
  0.500000  0.375000  0.075000     48.000000
 -0.475000  0.375000  0.075000     48.000000
 -0.450000  0.375000  0.075000     48.000000
 -0.425000  0.375000  0.075000     48.000000
 -0.400000  0.375000  0.075000     48.000000
 -0.375000  0.375000  0.075000     48.000000
 -0.350000  0.375000  0.075000     48.000000
 -0.325000  0.375000  0.075000     48.000000
 -0.300000  0.375000  0.075000     24.000000
  0.475000  0.400000  0.075000     24.000000
  0.500000  0.400000  0.075000     48.000000
 -0.475000  0.400000  0.075000     48.000000
 -0.450000  0.400000  0.075000     48.000000
 -0.425000  0.400000  0.075000     48.000000
 -0.400000  0.400000  0.075000     48.000000
 -0.375000  0.400000  0.075000     48.000000
 -0.350000  0.400000  0.075000     48.000000
 -0.325000  0.400000  0.075000     24.000000
  0.500000  0.425000  0.075000     24.000000
 -0.475000  0.425000  0.075000     48.000000
 -0.450000  0.425000  0.075000     48.000000
 -0.425000  0.425000  0.075000     48.000000
 -0.400000  0.425000  0.075000     48.000000
 -0.375000  0.425000  0.075000     48.000000
 -0.350000  0.425000  0.075000     24.000000
 -0.475000  0.450000  0.075000     24.000000
 -0.450000  0.450000  0.075000     48.000000
 -0.425000  0.450000  0.075000     48.000000
 -0.400000  0.450000  0.075000     48.000000
 -0.375000  0.450000  0.075000     24.000000
 -0.450000  0.475000  0.075000     24.000000
 -0.425000  0.475000  0.075000     48.000000
 -0.400000  0.475000  0.075000     24.000000
 -0.425000  0.500000  0.075000     12.000000
  0.300000  0.200000  0.100000     24.000000
  0.325000  0.200000  0.100000     48.000000
  0.350000  0.200000  0.100000     48.000000
  0.375000  0.200000  0.100000     48.000000
  0.400000  0.200000  0.100000     48.000000
  0.425000  0.200000  0.100000     48.000000
  0.450000  0.200000  0.100000     48.000000
  0.475000  0.200000  0.100000     48.000000
  0.500000  0.200000  0.100000     48.000000
 -0.475000  0.200000  0.100000     48.000000
 -0.450000  0.200000  0.100000     48.000000
 -0.425000  0.200000  0.100000     48.000000
 -0.400000  0.200000  0.100000     24.000000
  0.325000  0.225000  0.100000     24.000000
  0.350000  0.225000  0.100000     48.000000
  0.375000  0.225000  0.100000     48.000000
  0.400000  0.225000  0.100000     48.000000
  0.425000  0.225000  0.100000     48.000000
  0.450000  0.225000  0.100000     48.000000
  0.475000  0.225000  0.100000     48.000000
  0.500000  0.225000  0.100000     48.000000
 -0.475000  0.225000  0.100000     48.000000
 -0.450000  0.225000  0.100000     48.000000
 -0.425000  0.225000  0.100000     48.000000
 -0.400000  0.225000  0.100000     48.000000
 -0.375000  0.225000  0.100000     48.000000
 -0.350000  0.225000  0.100000     48.000000
 -0.325000  0.225000  0.100000     48.000000
 -0.300000  0.225000  0.100000     48.000000
 -0.275000  0.225000  0.100000     48.000000
 -0.250000  0.225000  0.100000     48.000000
 -0.225000  0.225000  0.100000     48.000000
 -0.200000  0.225000  0.100000     48.000000
 -0.175000  0.225000  0.100000     48.000000
 -0.150000  0.225000  0.100000     48.000000
 -0.125000  0.225000  0.100000     24.000000
  0.350000  0.250000  0.100000     24.000000
  0.375000  0.250000  0.100000     48.000000
  0.400000  0.250000  0.100000     48.000000
  0.425000  0.250000  0.100000     48.000000
  0.450000  0.250000  0.100000     48.000000
  0.475000  0.250000  0.100000     48.000000
  0.500000  0.250000  0.100000     48.000000
 -0.475000  0.250000  0.100000     48.000000
 -0.450000  0.250000  0.100000     48.000000
 -0.425000  0.250000  0.100000     48.000000
 -0.400000  0.250000  0.100000     48.000000
 -0.375000  0.250000  0.100000     48.000000
 -0.350000  0.250000  0.100000     48.000000
 -0.325000  0.250000  0.100000     48.000000
 -0.300000  0.250000  0.100000     48.000000
 -0.275000  0.250000  0.100000     48.000000
 -0.250000  0.250000  0.100000     48.000000
 -0.225000  0.250000  0.100000     48.000000
 -0.200000  0.250000  0.100000     48.000000
 -0.175000  0.250000  0.100000     48.000000
 -0.150000  0.250000  0.100000     24.000000
  0.375000  0.275000  0.100000     24.000000
  0.400000  0.275000  0.100000     48.000000
  0.425000  0.275000  0.100000     48.000000
  0.450000  0.275000  0.100000     48.000000
  0.475000  0.275000  0.100000     48.000000
  0.500000  0.275000  0.100000     48.000000
 -0.475000  0.275000  0.100000     48.000000
 -0.450000  0.275000  0.100000     48.000000
 -0.425000  0.275000  0.100000     48.000000
 -0.400000  0.275000  0.100000     48.000000
 -0.375000  0.275000  0.100000     48.000000
 -0.350000  0.275000  0.100000     48.000000
 -0.325000  0.275000  0.100000     48.000000
 -0.300000  0.275000  0.100000     48.000000
 -0.275000  0.275000  0.100000     48.000000
 -0.250000  0.275000  0.100000     48.000000
 -0.225000  0.275000  0.100000     48.000000
 -0.200000  0.275000  0.100000     48.000000
 -0.175000  0.275000  0.100000     24.000000
  0.400000  0.300000  0.100000     24.000000
  0.425000  0.300000  0.100000     48.000000
  0.450000  0.300000  0.100000     48.000000
  0.475000  0.300000  0.100000     48.000000
  0.500000  0.300000  0.100000     48.000000
 -0.475000  0.300000  0.100000     48.000000
 -0.450000  0.300000  0.100000     48.000000
 -0.425000  0.300000  0.100000     48.000000
 -0.400000  0.300000  0.100000     48.000000
 -0.375000  0.300000  0.100000     48.000000
 -0.350000  0.300000  0.100000     48.000000
 -0.325000  0.300000  0.100000     48.000000
 -0.300000  0.300000  0.100000     48.000000
 -0.275000  0.300000  0.100000     48.000000
 -0.250000  0.300000  0.100000     48.000000
 -0.225000  0.300000  0.100000     48.000000
 -0.200000  0.300000  0.100000     24.000000
  0.425000  0.325000  0.100000     24.000000
  0.450000  0.325000  0.100000     48.000000
  0.475000  0.325000  0.100000     48.000000
  0.500000  0.325000  0.100000     48.000000
 -0.475000  0.325000  0.100000     48.000000
 -0.450000  0.325000  0.100000     48.000000
 -0.425000  0.325000  0.100000     48.000000
 -0.400000  0.325000  0.100000     48.000000
 -0.375000  0.325000  0.100000     48.000000
 -0.350000  0.325000  0.100000     48.000000
 -0.325000  0.325000  0.100000     48.000000
 -0.300000  0.325000  0.100000     48.000000
 -0.275000  0.325000  0.100000     48.000000
 -0.250000  0.325000  0.100000     48.000000
 -0.225000  0.325000  0.100000     24.000000
  0.450000  0.350000  0.100000     24.000000
  0.475000  0.350000  0.100000     48.000000
  0.500000  0.350000  0.100000     48.000000
 -0.475000  0.350000  0.100000     48.000000
 -0.450000  0.350000  0.100000     48.000000
 -0.425000  0.350000  0.100000     48.000000
 -0.400000  0.350000  0.100000     48.000000
 -0.375000  0.350000  0.100000     48.000000
 -0.350000  0.350000  0.100000     48.000000
 -0.325000  0.350000  0.100000     48.000000
 -0.300000  0.350000  0.100000     48.000000
 -0.275000  0.350000  0.100000     48.000000
 -0.250000  0.350000  0.100000     24.000000
  0.475000  0.375000  0.100000     24.000000
  0.500000  0.375000  0.100000     48.000000
 -0.475000  0.375000  0.100000     48.000000
 -0.450000  0.375000  0.100000     48.000000
 -0.425000  0.375000  0.100000     48.000000
 -0.400000  0.375000  0.100000     48.000000
 -0.375000  0.375000  0.100000     48.000000
 -0.350000  0.375000  0.100000     48.000000
 -0.325000  0.375000  0.100000     48.000000
 -0.300000  0.375000  0.100000     48.000000
 -0.275000  0.375000  0.100000     24.000000
  0.500000  0.400000  0.100000     24.000000
 -0.475000  0.400000  0.100000     48.000000
 -0.450000  0.400000  0.100000     48.000000
 -0.425000  0.400000  0.100000     48.000000
 -0.400000  0.400000  0.100000     48.000000
 -0.375000  0.400000  0.100000     48.000000
 -0.350000  0.400000  0.100000     48.000000
 -0.325000  0.400000  0.100000     48.000000
 -0.300000  0.400000  0.100000     24.000000
 -0.475000  0.425000  0.100000     24.000000
 -0.450000  0.425000  0.100000     48.000000
 -0.425000  0.425000  0.100000     48.000000
 -0.400000  0.425000  0.100000     48.000000
 -0.375000  0.425000  0.100000     48.000000
 -0.350000  0.425000  0.100000     48.000000
 -0.325000  0.425000  0.100000     24.000000
 -0.450000  0.450000  0.100000     24.000000
 -0.425000  0.450000  0.100000     48.000000
 -0.400000  0.450000  0.100000     48.000000
 -0.375000  0.450000  0.100000     48.000000
 -0.350000  0.450000  0.100000     24.000000
 -0.425000  0.475000  0.100000     24.000000
 -0.400000  0.475000  0.100000     48.000000
 -0.375000  0.475000  0.100000     24.000000
 -0.400000  0.500000  0.100000     12.000000
  0.375000  0.250000  0.125000     24.000000
  0.400000  0.250000  0.125000     48.000000
  0.425000  0.250000  0.125000     48.000000
  0.450000  0.250000  0.125000     48.000000
  0.475000  0.250000  0.125000     48.000000
  0.500000  0.250000  0.125000     48.000000
 -0.475000  0.250000  0.125000     48.000000
 -0.450000  0.250000  0.125000     48.000000
 -0.425000  0.250000  0.125000     48.000000
 -0.400000  0.250000  0.125000     48.000000
 -0.375000  0.250000  0.125000     24.000000
  0.400000  0.275000  0.125000     24.000000
  0.425000  0.275000  0.125000     48.000000
  0.450000  0.275000  0.125000     48.000000
  0.475000  0.275000  0.125000     48.000000
  0.500000  0.275000  0.125000     48.000000
 -0.475000  0.275000  0.125000     48.000000
 -0.450000  0.275000  0.125000     48.000000
 -0.425000  0.275000  0.125000     48.000000
 -0.400000  0.275000  0.125000     48.000000
 -0.375000  0.275000  0.125000     48.000000
 -0.350000  0.275000  0.125000     48.000000
 -0.325000  0.275000  0.125000     48.000000
 -0.300000  0.275000  0.125000     48.000000
 -0.275000  0.275000  0.125000     48.000000
 -0.250000  0.275000  0.125000     48.000000
 -0.225000  0.275000  0.125000     48.000000
 -0.200000  0.275000  0.125000     48.000000
 -0.175000  0.275000  0.125000     48.000000
 -0.150000  0.275000  0.125000     24.000000
  0.425000  0.300000  0.125000     24.000000
  0.450000  0.300000  0.125000     48.000000
  0.475000  0.300000  0.125000     48.000000
  0.500000  0.300000  0.125000     48.000000
 -0.475000  0.300000  0.125000     48.000000
 -0.450000  0.300000  0.125000     48.000000
 -0.425000  0.300000  0.125000     48.000000
 -0.400000  0.300000  0.125000     48.000000
 -0.375000  0.300000  0.125000     48.000000
 -0.350000  0.300000  0.125000     48.000000
 -0.325000  0.300000  0.125000     48.000000
 -0.300000  0.300000  0.125000     48.000000
 -0.275000  0.300000  0.125000     48.000000
 -0.250000  0.300000  0.125000     48.000000
 -0.225000  0.300000  0.125000     48.000000
 -0.200000  0.300000  0.125000     48.000000
 -0.175000  0.300000  0.125000     24.000000
  0.450000  0.325000  0.125000     24.000000
  0.475000  0.325000  0.125000     48.000000
  0.500000  0.325000  0.125000     48.000000
 -0.475000  0.325000  0.125000     48.000000
 -0.450000  0.325000  0.125000     48.000000
 -0.425000  0.325000  0.125000     48.000000
 -0.400000  0.325000  0.125000     48.000000
 -0.375000  0.325000  0.125000     48.000000
 -0.350000  0.325000  0.125000     48.000000
 -0.325000  0.325000  0.125000     48.000000
 -0.300000  0.325000  0.125000     48.000000
 -0.275000  0.325000  0.125000     48.000000
 -0.250000  0.325000  0.125000     48.000000
 -0.225000  0.325000  0.125000     48.000000
 -0.200000  0.325000  0.125000     24.000000
  0.475000  0.350000  0.125000     24.000000
[...]
      8      28.0100      0.00000

 k-point  1628 :      -0.2750    0.4500    0.1750
  band No.  band energies     occupation 
      1      -2.6465      2.00000
      2      -1.2507      2.00000
      3       1.0805      2.00000
      4       3.1804      2.00000
      5      21.9927      0.00000
      6      24.7624      0.00000
      7      27.0668      0.00000
      8      27.5590      0.00000

 k-point  1629 :      -0.3500    0.4750    0.1750
  band No.  band energies     occupation 
      1      -2.8421      2.00000
      2      -1.3238      2.00000
      3       2.2254      2.00000
      4       2.5822      2.00000
      5      21.3711      0.00000
      6      21.7373      0.00000
      7      28.2530      0.00000
      8      29.4907      0.00000

 k-point  1630 :      -0.3250    0.4750    0.1750
  band No.  band energies     occupation 
      1      -2.3727      2.00000
      2      -1.6283      2.00000
      3       1.8933      2.00000
      4       2.5554      2.00000
      5      21.6337      0.00000
      6      22.4587      0.00000
      7      28.0903      0.00000
      8      28.7768      0.00000

 k-point  1631 :      -0.3000    0.4750    0.1750
  band No.  band energies     occupation 
      1      -2.1825      2.00000
      2      -1.7036      2.00000
      3       1.5073      2.00000
      4       2.7241      2.00000
      5      21.7490      0.00000
      6      23.3614      0.00000
      7      27.7443      0.00000
      8      28.2226      0.00000

 k-point  1632 :      -0.3250    0.5000    0.1750
  band No.  band energies     occupation 
      1      -2.0667      2.00000
      2      -2.0667      2.00000
      3       2.3493      2.00000
      4       2.3493      2.00000
      5      21.5364      0.00000
      6      21.5364      0.00000
      7      28.8938      0.00000
      8      28.8938      0.00000

 k-point  1633 :      -0.4000    0.4000    0.2000
  band No.  band energies     occupation 
      1      -4.8470      2.00000
      2       0.2320      2.00000
      3       1.9142      2.00000
      4       4.1535      2.00000
      5      22.1648      0.00000
      6      22.8260      0.00000
      7      26.0929      0.00000
      8      30.0001      0.00000

 k-point  1634 :      -0.3750    0.4000    0.2000
  band No.  band energies     occupation 
      1      -4.3139      2.00000
      2      -0.1814      2.00000
      3       1.7128      2.00000
      4       3.8648      2.00000
      5      22.4823      0.00000
      6      23.1034      0.00000
      7      26.2112      0.00000
      8      29.6087      0.00000

 k-point  1635 :      -0.3500    0.4000    0.2000
  band No.  band energies     occupation 
      1      -3.7986      2.00000
      2      -0.6562      2.00000
      3       1.6263      2.00000
      4       3.6402      2.00000
      5      22.4833      0.00000
      6      23.6134      0.00000
      7      26.4597      0.00000
      8      28.9926      0.00000

 k-point  1636 :      -0.3250    0.4000    0.2000
  band No.  band energies     occupation 
      1      -3.3651      2.00000
      2      -1.0822      2.00000
      3       1.5984      2.00000
      4       3.4960      2.00000
      5      22.4587      0.00000
      6      23.9740      0.00000
      7      26.8904      0.00000
      8      28.2764      0.00000

 k-point  1637 :      -0.3000    0.4000    0.2000
  band No.  band energies     occupation 
      1      -3.1734      2.00000
      2      -1.2741      2.00000
      3       1.5931      2.00000
      4       3.4460      2.00000
      5      22.4489      0.00000
      6      24.0973      0.00000
      7      27.3667      0.00000
      8      27.6977      0.00000

 k-point  1638 :      -0.3750    0.4250    0.2000
  band No.  band energies     occupation 
      1      -4.1104      2.00000
      2      -0.2048      2.00000
      3       1.8206      2.00000
      4       3.4471      2.00000
      5      22.2223      0.00000
      6      22.8355      0.00000
      7      26.3584      0.00000
      8      29.7288      0.00000

 k-point  1639 :      -0.3500    0.4250    0.2000
  band No.  band energies     occupation 
      1      -3.5931      2.00000
      2      -0.5719      2.00000
      3       1.6332      2.00000
      4       3.1904      2.00000
      5      22.5372      0.00000
      6      23.2642      0.00000
      7      26.3728      0.00000
      8      29.1027      0.00000

 k-point  1640 :      -0.3250    0.4250    0.2000
  band No.  band energies     occupation 
      1      -3.1284      2.00000
      2      -0.9522      2.00000
      3       1.5044      2.00000
      4       3.0413      2.00000
      5      22.5979      0.00000
      6      23.8621      0.00000
      7      26.4995      0.00000
      8      28.3753      0.00000

 k-point  1641 :      -0.3000    0.4250    0.2000
  band No.  band energies     occupation 
      1      -2.8422      2.00000
      2      -1.2000      2.00000
      3       1.4065      2.00000
      4       3.0123      2.00000
      5      22.6438      0.00000
      6      24.2352      0.00000
      7      26.8245      0.00000
      8      27.6700      0.00000

 k-point  1642 :      -0.2750    0.4250    0.2000
  band No.  band energies     occupation 
      1      -2.9267      2.00000
      2      -1.1159      2.00000
      3       1.3400      2.00000
      4       3.0982      2.00000
      5      22.7054      0.00000
      6      24.2354      0.00000
      7      26.9449      0.00000
      8      27.5319      0.00000

 k-point  1643 :      -0.2500    0.4250    0.2000
  band No.  band energies     occupation 
      1      -3.3068      2.00000
      2      -0.7881      2.00000
      3       1.3354      2.00000
      4       3.2813      2.00000
      5      22.7847      0.00000
      6      23.8819      0.00000
      7      26.5637      0.00000
      8      28.2347      0.00000

 k-point  1644 :      -0.2250    0.4250    0.2000
  band No.  band energies     occupation 
      1      -3.7958      2.00000
      2      -0.4384      2.00000
      3       1.4444      2.00000
      4       3.5424      2.00000
      5      22.8544      0.00000
      6      23.3172      0.00000
      7      26.3309      0.00000
      8      28.9827      0.00000

 k-point  1645 :      -0.3500    0.4500    0.2000
  band No.  band energies     occupation 
      1      -3.3654      2.00000
      2      -0.7007      2.00000
      3       1.8052      2.00000
      4       2.8487      2.00000
      5      22.3021      0.00000
      6      22.7624      0.00000
      7      26.7966      0.00000
      8      29.2242      0.00000

 k-point  1646 :      -0.3250    0.4500    0.2000
  band No.  band energies     occupation 
      1      -2.8835      2.00000
      2      -1.0224      2.00000
      3       1.6263      2.00000
      4       2.6507      2.00000
      5      22.5741      0.00000
      6      23.3501      0.00000
      7      26.7272      0.00000
      8      28.4866      0.00000

 k-point  1647 :      -0.3000    0.4500    0.2000
  band No.  band energies     occupation 
      1      -2.5271      2.00000
      2      -1.2825      2.00000
      3       1.4302      2.00000
      4       2.6332      2.00000
      5      22.6538      0.00000
      6      24.0483      0.00000
      7      26.7265      0.00000
      8      27.7558      0.00000

 k-point  1648 :      -0.2750    0.4500    0.2000
  band No.  band energies     occupation 
      1      -2.5192      2.00000
      2      -1.2704      2.00000
      3       1.2716      2.00000
      4       2.7576      2.00000
      5      22.7280      0.00000
      6      24.4408      0.00000
      7      26.9008      0.00000
      8      27.1833      0.00000

 k-point  1649 :      -0.2500    0.4500    0.2000
  band No.  band energies     occupation 
      1      -2.8514      2.00000
      2      -1.0218      2.00000
      3       1.2209      2.00000
      4       2.9819      2.00000
      5      22.7945      0.00000
      6      24.3118      0.00000
      7      26.7517      0.00000
      8      27.4931      0.00000

 k-point  1650 :      -0.3250    0.4750    0.2000
  band No.  band energies     occupation 
      1      -2.6288      2.00000
      2      -1.2739      2.00000
      3       1.8820      2.00000
      4       2.3872      2.00000
      5      22.4033      0.00000
      6      22.6474      0.00000
      7      27.3512      0.00000
      8      28.6131      0.00000

 k-point  1651 :      -0.3000    0.4750    0.2000
  band No.  band energies     occupation 
      1      -2.2222      2.00000
      2      -1.5408      2.00000
      3       1.6717      2.00000
      4       2.3171      2.00000
      5      22.5942      0.00000
      6      23.3807      0.00000
      7      27.2223      0.00000
      8      27.8590      0.00000

 k-point  1652 :      -0.2750    0.4750    0.2000
  band No.  band energies     occupation 
      1      -2.1923      2.00000
      2      -1.5170      2.00000
      3       1.4050      2.00000
      4       2.4871      2.00000
      5      22.6705      0.00000
      6      24.1149      0.00000
      7      27.0272      0.00000
      8      27.3187      0.00000

 k-point  1653 :      -0.3000    0.5000    0.2000
  band No.  band energies     occupation 
      1      -1.9232      2.00000
      2      -1.9232      2.00000
      3       2.0692      2.00000
      4       2.0692      2.00000
      5      22.5215      0.00000
      6      22.5215      0.00000
      7      27.9718      0.00000
      8      27.9718      0.00000

 k-point  1654 :      -0.3250    0.4500    0.2250
  band No.  band energies     occupation 
      1      -3.0997      2.00000
      2      -0.8318      2.00000
      3       1.4723      2.00000
      4       2.8642      2.00000
      5      23.1416      0.00000
      6      23.3615      0.00000
      7      26.4057      0.00000
      8      28.3497      0.00000

 k-point  1655 :      -0.3000    0.4500    0.2250
  band No.  band energies     occupation 
      1      -2.6737      2.00000
      2      -1.1257      2.00000
      3       1.4043      2.00000
      4       2.6447      2.00000
      5      23.1459      0.00000
      6      23.9334      0.00000
      7      26.5417      0.00000
      8      27.6025      0.00000

 k-point  1656 :      -0.2750    0.4500    0.2250
  band No.  band energies     occupation 
      1      -2.4731      2.00000
      2      -1.2844      2.00000
      3       1.3890      2.00000
      4       2.5659      2.00000
      5      23.1369      0.00000
      6      24.1814      0.00000
      7      26.7637      0.00000
      8      27.1264      0.00000

 k-point  1657 :      -0.3000    0.4750    0.2250
  band No.  band energies     occupation 
      1      -2.4328      2.00000
      2      -1.2868      2.00000
      3       1.6109      2.00000
      4       2.3016      2.00000
      5      23.3190      0.00000
      6      23.3939      0.00000
      7      26.6794      0.00000
      8      27.7098      0.00000

 k-point  1658 :      -0.2750    0.4750    0.2250
  band No.  band energies     occupation 
      1      -2.1326      2.00000
      2      -1.4969      2.00000
      3       1.5568      2.00000
      4       2.1843      2.00000
      5      23.3507      0.00000
      6      23.9760      0.00000
      7      26.7017      0.00000
      8      27.0679      0.00000

 k-point  1659 :      -0.2500    0.4750    0.2250
  band No.  band energies     occupation 
      1      -2.2793      2.00000
      2      -1.3710      2.00000
      3       1.4431      2.00000
      4       2.3380      2.00000
      5      23.3331      0.00000
      6      24.1343      0.00000
      7      26.6623      0.00000
      8      27.0075      0.00000

 k-point  1660 :      -0.2750    0.5000    0.2250
  band No.  band energies     occupation 
      1      -1.8215      2.00000
      2      -1.8215      2.00000
      3       1.8823      2.00000
      4       1.8823      2.00000
      5      23.3915      0.00000
      6      23.3915      0.00000
      7      27.1321      0.00000
      8      27.1321      0.00000

 k-point  1661 :      -0.2500    0.5000    0.2500
  band No.  band energies     occupation 
      1      -1.7844      2.00000
      2      -1.7844      2.00000
      3       1.8161      2.00000
      4       1.8161      2.00000
      5      23.8018      0.00000
      6      23.8018      0.00000
      7      26.7304      0.00000
      8      26.7304      0.00000


--------------------------------------------------------------------------------------------------------


 soft charge-density along one line, spin component           1
         0         1         2         3         4         5         6         7         8         9
 total charge-density along one line
 
 pseudopotential strength for first ion, spin component:           1
  9.506  12.619  -0.000   0.000   0.000   0.000  -0.000  -0.000
 12.619  16.750  -0.000   0.000   0.000   0.000  -0.000  -0.000
 -0.000  -0.000  -3.517   0.000   0.000   6.812  -0.000  -0.000
  0.000   0.000   0.000  -3.517   0.000  -0.000   6.812  -0.000
  0.000   0.000   0.000   0.000  -3.517  -0.000  -0.000   6.812
  0.000   0.000   6.812  -0.000  -0.000 -15.414   0.000   0.000
 -0.000  -0.000  -0.000   6.812  -0.000   0.000 -15.414   0.000
 -0.000  -0.000  -0.000  -0.000   6.812   0.000   0.000 -15.414
 total augmentation occupancy for first ion, spin component:           1
 10.122  -4.868   0.000   0.000  -0.000  -0.000  -0.000  -0.000
 -4.868   2.419   0.000   0.000   0.000   0.000   0.000   0.000
  0.000   0.000   1.769   0.000   0.000   0.172   0.000   0.000
  0.000   0.000   0.000   1.769  -0.000  -0.000   0.172  -0.000
 -0.000   0.000   0.000  -0.000   1.769   0.000  -0.000   0.172
 -0.000   0.000   0.172  -0.000   0.000   0.019   0.000   0.000
 -0.000   0.000  -0.000   0.172  -0.000  -0.000   0.019  -0.000
 -0.000   0.000   0.000  -0.000   0.172   0.000  -0.000   0.019


------------------------ aborting loop because EDIFF is reached ----------------------------------------


 


 total charge     
 
# of ion       s       p       d       tot
------------------------------------------
    1        0.874   1.900   0.000   2.774
    2        0.874   1.900   0.000   2.774
--------------------------------------------------
tot          1.749   3.800   0.000   5.548
 
    CHARGE:  cpu time    0.0824: real time    0.0824
    FORLOC:  cpu time    0.0002: real time    0.0002
    FORNL :  cpu time    0.1315: real time    0.1315
    STRESS:  cpu time   13.9010: real time   13.9008
    FORCOR:  cpu time    0.0158: real time    0.0158
    FORHAR:  cpu time    0.0009: real time    0.0009
    MIXING:  cpu time    0.0011: real time    0.0011
    OFIELD:  cpu time    0.0000: real time    0.0000

  FORCE on cell =-STRESS in cart. coord.  units (eV):
  Direction    XX          YY          ZZ          XY          YZ          ZX
  --------------------------------------------------------------------------------------
  Alpha Z    33.35219    33.35219    33.35219
  Ewald    -121.56925  -121.56925  -121.56925    -0.00000    -0.00000    -0.00000
  Hartree     8.16167     8.16167     8.16167     0.00000     0.00000     0.00000
  E(xc)     -31.59232   -31.93334   -31.54439     0.14263    -0.02144     0.07059
  Local      -9.57181    -9.57181    -9.57181    -0.00000    -0.00000    -0.00000
  n-local    -7.18068    -6.02156    -8.33358    -0.29689    -0.13098     0.07538
  augment    -1.06957    -1.06957    -1.06957     0.00000     0.00000     0.00000
  Kinetic   137.40089   128.97151   136.89086     5.12249    -1.20425     2.02657
  Fock        0.00000     0.00000     0.00000     0.00000     0.00000     0.00000
  -------------------------------------------------------------------------------------
  Total       4.85569     4.85569     4.85569     0.00000    -0.00000    -0.00000
  in kB     789.65153   789.65153   789.65153     0.00000    -0.00000    -0.00000
  external pressure =      789.65 kB  Pullay stress =        0.00 kB


 VOLUME and BASIS-vectors are now :
 -----------------------------------------------------------------------------
  energy-cutoff  :      800.00
  volume of cell :        9.85
      direct lattice vectors                 reciprocal lattice vectors
     0.000000000  1.701500000  1.701500000    -0.293858360  0.293858360  0.293858360
     1.701500000  0.000000000  1.701500000     0.293858360 -0.293858360  0.293858360
     1.701500000  1.701500000  0.000000000     0.293858360  0.293858360 -0.293858360

  length of vectors
     2.406284376  2.406284376  2.406284376     0.508977610  0.508977610  0.508977610


 FORCES acting on ions
    electron-ion (+dipol)            ewald-force                    non-local-force                 convergence-correction
 -----------------------------------------------------------------------------------------------
   0.126E-07 0.126E-07 0.116E-07   -.512E-14 -.750E-14 -.699E-14   0.208E-16 0.208E-16 0.416E-16   0.468E-09 0.468E-09 0.468E-09
   -.126E-07 -.126E-07 -.116E-07   0.469E-14 0.688E-14 0.618E-14   -.132E-15 -.208E-16 -.312E-16   -.468E-09 -.468E-09 -.468E-09
 -----------------------------------------------------------------------------------------------
   0.181E-12 0.388E-12 0.115E-12   -.434E-15 -.622E-15 -.810E-15   -.111E-15 0.000E+00 0.104E-16   -.249E-14 -.354E-14 -.270E-14
 
 
 POSITION                                       TOTAL-FORCE (eV/Angst)
 -----------------------------------------------------------------------------------
      2.97763      2.97763      2.97763         0.000000     -0.000000      0.000000
      0.42538      0.42538      0.42538        -0.000000      0.000000     -0.000000
 -----------------------------------------------------------------------------------
    total drift:                                0.000000      0.000000      0.000000


--------------------------------------------------------------------------------------------------------



  FREE ENERGIE OF THE ION-ELECTRON SYSTEM (eV)
  ---------------------------------------------------
  free  energy   TOTEN  =       -19.35247951 eV

  energy  without entropy=      -19.35247951  energy(sigma->0) =      -19.35247951
 


--------------------------------------------------------------------------------------------------------


    POTLOK:  cpu time    0.3722: real time    0.3722


--------------------------------------------------------------------------------------------------------


     LOOP+:  cpu time   98.7625: real time   98.8663
    4ORBIT:  cpu time    0.0000: real time    0.0000
 


 total charge     
 
# of ion       s       p       d       tot
------------------------------------------
    1        0.874   1.900   0.000   2.774
    2        0.874   1.900   0.000   2.774
--------------------------------------------------
tot          1.749   3.800   0.000   5.548
 
 BZINTS: Fermi energy:   11.865607;    8.000000 electrons
         Band energy: 0.111808E+02;  BLOECHL correction:    0.000000

 total amount of memory used by VASP MPI-rank0    44201. kBytes
=======================================================================

   base      :      30000. kBytes
   nonl-proj :       5954. kBytes
   fftplans  :        918. kBytes
   grid      :        523. kBytes
   one-center:          3. kBytes
   wavefun   :       6803. kBytes
 
  
  
 General timing and accounting informations for this job:
 ========================================================
  
                  Total CPU time used (sec):      103.743
                            User time (sec):      103.387
                          System time (sec):        0.356
                         Elapsed time (sec):      104.179
  
                   Maximum memory used (kb):      103056.
                   Average memory used (kb):           0.
  
                          Minor page faults:        38157
                          Major page faults:            8
                 Voluntary context switches:         1557
