 vasp.6.1.2 22Jul20 (build Mar 11 2021 17:42:27) complex                        
  
 executed on             LinuxIFC date 2021.03.19  16:30:17
 running on   40 total cores
 distrk:  each k-point on   20 cores,    2 groups
 distr:  one band on NCORE=  10 cores,    2 groups


--------------------------------------------------------------------------------------------------------


 INCAR:
 POTCAR:    PAW_PBE C 08Apr2002                   
 POTCAR:    PAW_PBE C 08Apr2002                   
   VRHFIN =C: s2p2                                                                                  
   LEXCH  = PE                                                                                      
   EATOM  =   147.1560 eV,   10.8157 Ry                                                             
                                                                                                    
   TITEL  = PAW_PBE C 08Apr2002                                                                     
   LULTRA =        F    use ultrasoft PP ?                                                          
   IUNSCR =        1    unscreen: 0-lin 1-nonlin 2-no                                               
   RPACOR =    1.200    partial core radius                                                         
   POMASS =   12.011; ZVAL   =    4.000    mass and valenz                                          
   RCORE  =    1.500    outmost cutoff radius                                                       
   RWIGS  =    1.630; RWIGS  =    0.863    wigner-seitz radius (au A)                               
   ENMAX  =  400.000; ENMIN  =  300.000 eV                                                          
   ICORE  =        2    local potential                                                             
   LCOR   =        T    correct aug charges                                                         
   LPAW   =        T    paw PP                                                                      
   EAUG   =  644.873                                                                                
   DEXC   =    0.000                                                                                
   RMAX   =    1.529    core radius for proj-oper                                                   
   RAUG   =    1.300    factor for augmentation sphere                                              
   RDEP   =    1.501    radius for radial grids                                                     
   RDEPT  =    1.300    core radius for aug-charge                                                  
                                                                                                    
   Atomic configuration                                                                             
    4 entries                                                                                       
     n  l   j            E        occ.                                                              
     1  0  0.50      -273.3789   2.0000                                                             
     2  0  0.50       -13.7508   2.0000                                                             
     2  1  0.50        -5.2854   2.0000                                                             
     3  2  1.50        -5.4423   0.0000                                                             
   Description                                                                                      
     l       E           TYP  RCUT    TYP  RCUT                                                     
     0    -13.7508458     23  1.200                                                                 
     0     -8.2022199     23  1.200                                                                 
     1     -5.2854383     23  1.500                                                                 
     1     34.0145650     23  1.500                                                                 
     2     -5.4423304      7  1.500                                                                 
  local pseudopotential read in
  partial core-charges read in
  partial kinetic energy density read in
  atomic valenz-charges read in
  non local Contribution for L=           0  read in
    real space projection operators read in
  non local Contribution for L=           0  read in
    real space projection operators read in
  non local Contribution for L=           1  read in
    real space projection operators read in
  non local Contribution for L=           1  read in
    real space projection operators read in
    PAW grid and wavefunctions read in
 
   number of l-projection  operators is LMAX  =           4
   number of lm-projection operators is LMMAX =           8
 
  PAW_PBE C 08Apr2002                   :
 energy of atom  1       EATOM= -147.1560
 kinetic energy error for atom=    0.0016 (will be added to EATOM!!)
 
 
 POSCAR: carbon
  positions in direct lattice
  No initial velocities read in

 METAGGA = R2SCA    LMAXTAU =  6    LMIXTAU =  T

 exchange correlation table for  LEXCH =        8
   RHO(1)=    0.500       N(1)  =     2000
   RHO(2)=  100.500       N(2)  =     4000
 


--------------------------------------------------------------------------------------------------------


 ion  position               nearest neighbor table
   1  0.875  0.875  0.875-   2 1.65   2 1.65   2 1.65   2 1.65
   2  0.125  0.125  0.125-   1 1.65   1 1.65   1 1.65   1 1.65
 
  LATTYP: Found a face centered cubic cell.
 ALAT       =     3.8030000000
  
  Lattice vectors:
  
 A1 = (   0.0000000000,   1.9015000000,   1.9015000000)
 A2 = (   1.9015000000,   0.0000000000,   1.9015000000)
 A3 = (   1.9015000000,   1.9015000000,   0.0000000000)


Analysis of symmetry for initial positions (statically):
=====================================================================
 Subroutine PRICEL returns:
 Original cell was already a primitive cell.
 

 Routine SETGRP: Setting up the symmetry group for a 
 face centered cubic supercell.


 Subroutine GETGRP returns: Found 48 space group operations
 (whereof 12 operations were pure point group operations)
 out of a pool of 48 trial point group operations.


The static configuration has the point symmetry D_3d.
 The point group associated with its full space group is O_h .


Analysis of symmetry for dynamics (positions and initial velocities):
=====================================================================
 Subroutine PRICEL returns:
 Original cell was already a primitive cell.
 

 Routine SETGRP: Setting up the symmetry group for a 
 face centered cubic supercell.


 Subroutine GETGRP returns: Found 48 space group operations
 (whereof 12 operations were pure point group operations)
 out of a pool of 48 trial point group operations.


The dynamic configuration has the point symmetry D_3d.
 The point group associated with its full space group is O_h .


 Subroutine INISYM returns: Found 48 space group operations
 (whereof 12 operations are pure point group operations),
 and found     1 'primitive' translations


----------------------------------------------------------------------------------------

                                     Primitive cell                                     

  volume of cell :      13.7505

  direct lattice vectors                    reciprocal lattice vectors
     0.000000000  1.901500000  1.901500000    -0.262950302  0.262950302  0.262950302
     1.901500000  0.000000000  1.901500000     0.262950302 -0.262950302  0.262950302
     1.901500000  1.901500000  0.000000000     0.262950302  0.262950302 -0.262950302

  length of vectors
     2.689127089  2.689127089  2.689127089     0.455443284  0.455443284  0.455443284

  position of ions in fractional coordinates (direct lattice)
     0.875000000  0.875000000  0.875000000
     0.125000000  0.125000000  0.125000000

  ion indices of the primitive-cell ions
   primitive index   ion index
                 1           1
                 2           2

----------------------------------------------------------------------------------------

 
 

Automatic generation of k-mesh.
 generate k-points for:   36   36   36
Space group operators:
 irot       det(A)        alpha          n_x          n_y          n_z        tau_x        tau_y        tau_z
    1     1.000000     0.000000     1.000000     0.000000     0.000000     0.000000     0.000000     0.000000
    2    -1.000000     0.000000     1.000000     0.000000     0.000000     0.000000     0.000000     0.000000
    3     1.000000   120.000000    -0.577350    -0.577350    -0.577350     0.000000     0.000000     0.000000
    4    -1.000000   120.000000    -0.577350    -0.577350    -0.577350     0.000000     0.000000     0.000000
    5     1.000000   120.000000     0.577350     0.577350     0.577350     0.000000     0.000000     0.000000
    6    -1.000000   120.000000     0.577350     0.577350     0.577350     0.000000     0.000000     0.000000
    7     1.000000   180.000000     0.000000    -0.707107     0.707107     0.000000     0.000000     0.000000
    8    -1.000000   180.000000     0.000000    -0.707107     0.707107     0.000000     0.000000     0.000000
    9     1.000000   180.000000     0.707107    -0.707107     0.000000     0.000000     0.000000     0.000000
   10    -1.000000   180.000000     0.707107    -0.707107     0.000000     0.000000     0.000000     0.000000
   11     1.000000   180.000000     0.707107     0.000000    -0.707107     0.000000     0.000000     0.000000
   12    -1.000000   180.000000     0.707107     0.000000    -0.707107     0.000000     0.000000     0.000000
   13     1.000000    90.000000     0.000000     0.000000    -1.000000    -0.500000     0.000000     0.000000
   14    -1.000000    90.000000     0.000000     0.000000    -1.000000    -0.500000     0.000000     0.000000
   15     1.000000   180.000000     0.000000     0.707107     0.707107    -0.500000     0.000000     0.000000
   16    -1.000000   180.000000     0.000000     0.707107     0.707107    -0.500000     0.000000     0.000000
   17     1.000000    90.000000     0.000000     1.000000     0.000000    -0.500000     0.000000     0.000000
   18    -1.000000    90.000000     0.000000     1.000000     0.000000    -0.500000     0.000000     0.000000
   19     1.000000   180.000000     0.000000     0.000000     1.000000     0.000000     0.000000    -0.500000
   20    -1.000000   180.000000     0.000000     0.000000     1.000000     0.000000     0.000000    -0.500000
   21     1.000000   120.000000    -0.577350     0.577350     0.577350     0.000000     0.000000    -0.500000
   22    -1.000000   120.000000    -0.577350     0.577350     0.577350     0.000000     0.000000    -0.500000
   23     1.000000   120.000000    -0.577350     0.577350    -0.577350     0.000000     0.000000    -0.500000
   24    -1.000000   120.000000    -0.577350     0.577350    -0.577350     0.000000     0.000000    -0.500000
   25     1.000000    90.000000     0.000000     0.000000     1.000000     0.000000    -0.500000     0.000000
   26    -1.000000    90.000000     0.000000     0.000000     1.000000     0.000000    -0.500000     0.000000
   27     1.000000    90.000000    -1.000000     0.000000     0.000000     0.000000    -0.500000     0.000000
   28    -1.000000    90.000000    -1.000000     0.000000     0.000000     0.000000    -0.500000     0.000000
   29     1.000000   180.000000     0.707107     0.000000     0.707107     0.000000    -0.500000     0.000000
   30    -1.000000   180.000000     0.707107     0.000000     0.707107     0.000000    -0.500000     0.000000
   31     1.000000   120.000000     0.577350    -0.577350     0.577350    -0.500000     0.000000     0.000000
   32    -1.000000   120.000000     0.577350    -0.577350     0.577350    -0.500000     0.000000     0.000000
   33     1.000000   120.000000    -0.577350    -0.577350     0.577350    -0.500000     0.000000     0.000000
   34    -1.000000   120.000000    -0.577350    -0.577350     0.577350    -0.500000     0.000000     0.000000
   35     1.000000   180.000000     1.000000     0.000000     0.000000    -0.500000     0.000000     0.000000
   36    -1.000000   180.000000     1.000000     0.000000     0.000000    -0.500000     0.000000     0.000000
   37     1.000000    90.000000     0.000000    -1.000000     0.000000     0.000000     0.000000    -0.500000
   38    -1.000000    90.000000     0.000000    -1.000000     0.000000     0.000000     0.000000    -0.500000
   39     1.000000   180.000000     0.707107     0.707107     0.000000     0.000000     0.000000    -0.500000
   40    -1.000000   180.000000     0.707107     0.707107     0.000000     0.000000     0.000000    -0.500000
   41     1.000000    90.000000     1.000000     0.000000     0.000000     0.000000     0.000000    -0.500000
   42    -1.000000    90.000000     1.000000     0.000000     0.000000     0.000000     0.000000    -0.500000
   43     1.000000   120.000000     0.577350    -0.577350    -0.577350     0.000000    -0.500000     0.000000
   44    -1.000000   120.000000     0.577350    -0.577350    -0.577350     0.000000    -0.500000     0.000000
   45     1.000000   180.000000     0.000000     1.000000     0.000000     0.000000    -0.500000     0.000000
   46    -1.000000   180.000000     0.000000     1.000000     0.000000     0.000000    -0.500000     0.000000
   47     1.000000   120.000000     0.577350     0.577350    -0.577350     0.000000    -0.500000     0.000000
   48    -1.000000   120.000000     0.577350     0.577350    -0.577350     0.000000    -0.500000     0.000000
 TETIRR: Found   6145 inequivalent tetrahedra from   279936
 
 Subroutine IBZKPT returns following result:
 ===========================================
 
 Found   1240 irreducible k-points:
 
 Following reciprocal coordinates:
            Coordinates               Weight
  0.000000  0.000000  0.000000      1.000000
  0.027778  0.000000  0.000000      8.000000
  0.055556  0.000000  0.000000      8.000000
  0.083333  0.000000  0.000000      8.000000
  0.111111  0.000000  0.000000      8.000000
  0.138889  0.000000  0.000000      8.000000
  0.166667  0.000000  0.000000      8.000000
  0.194444  0.000000  0.000000      8.000000
  0.222222  0.000000  0.000000      8.000000
  0.250000  0.000000  0.000000      8.000000
  0.277778  0.000000  0.000000      8.000000
  0.305556  0.000000  0.000000      8.000000
  0.333333  0.000000  0.000000      8.000000
  0.361111  0.000000  0.000000      8.000000
  0.388889  0.000000  0.000000      8.000000
  0.416667  0.000000  0.000000      8.000000
  0.444444  0.000000  0.000000      8.000000
  0.472222  0.000000  0.000000      8.000000
  0.500000  0.000000  0.000000      4.000000
  0.027778  0.027778  0.000000      6.000000
  0.055556  0.027778  0.000000     24.000000
  0.083333  0.027778  0.000000     24.000000
  0.111111  0.027778  0.000000     24.000000
  0.138889  0.027778  0.000000     24.000000
  0.166667  0.027778  0.000000     24.000000
  0.194444  0.027778  0.000000     24.000000
  0.222222  0.027778  0.000000     24.000000
  0.250000  0.027778  0.000000     24.000000
  0.277778  0.027778  0.000000     24.000000
  0.305556  0.027778  0.000000     24.000000
  0.333333  0.027778  0.000000     24.000000
  0.361111  0.027778  0.000000     24.000000
  0.388889  0.027778  0.000000     24.000000
  0.416667  0.027778  0.000000     24.000000
  0.444444  0.027778  0.000000     24.000000
  0.472222  0.027778  0.000000     24.000000
  0.500000  0.027778  0.000000     24.000000
 -0.472222  0.027778  0.000000     24.000000
 -0.444444  0.027778  0.000000     24.000000
 -0.416667  0.027778  0.000000     24.000000
 -0.388889  0.027778  0.000000     24.000000
 -0.361111  0.027778  0.000000     24.000000
 -0.333333  0.027778  0.000000     24.000000
 -0.305556  0.027778  0.000000     24.000000
 -0.277778  0.027778  0.000000     24.000000
 -0.250000  0.027778  0.000000     24.000000
 -0.222222  0.027778  0.000000     24.000000
 -0.194444  0.027778  0.000000     24.000000
 -0.166667  0.027778  0.000000     24.000000
 -0.138889  0.027778  0.000000     24.000000
 -0.111111  0.027778  0.000000     24.000000
 -0.083333  0.027778  0.000000     24.000000
 -0.055556  0.027778  0.000000     24.000000
 -0.027778  0.027778  0.000000     12.000000
  0.055556  0.055556  0.000000      6.000000
  0.083333  0.055556  0.000000     24.000000
  0.111111  0.055556  0.000000     24.000000
  0.138889  0.055556  0.000000     24.000000
  0.166667  0.055556  0.000000     24.000000
  0.194444  0.055556  0.000000     24.000000
  0.222222  0.055556  0.000000     24.000000
  0.250000  0.055556  0.000000     24.000000
  0.277778  0.055556  0.000000     24.000000
  0.305556  0.055556  0.000000     24.000000
  0.333333  0.055556  0.000000     24.000000
  0.361111  0.055556  0.000000     24.000000
  0.388889  0.055556  0.000000     24.000000
  0.416667  0.055556  0.000000     24.000000
  0.444444  0.055556  0.000000     24.000000
  0.472222  0.055556  0.000000     24.000000
  0.500000  0.055556  0.000000     24.000000
 -0.472222  0.055556  0.000000     24.000000
 -0.444444  0.055556  0.000000     24.000000
 -0.416667  0.055556  0.000000     24.000000
 -0.388889  0.055556  0.000000     24.000000
 -0.361111  0.055556  0.000000     24.000000
 -0.333333  0.055556  0.000000     24.000000
 -0.305556  0.055556  0.000000     24.000000
 -0.277778  0.055556  0.000000     24.000000
 -0.250000  0.055556  0.000000     24.000000
 -0.222222  0.055556  0.000000     24.000000
 -0.194444  0.055556  0.000000     24.000000
 -0.166667  0.055556  0.000000     24.000000
 -0.138889  0.055556  0.000000     24.000000
 -0.111111  0.055556  0.000000     24.000000
 -0.083333  0.055556  0.000000     24.000000
 -0.055556  0.055556  0.000000     12.000000
  0.083333  0.083333  0.000000      6.000000
  0.111111  0.083333  0.000000     24.000000
  0.138889  0.083333  0.000000     24.000000
  0.166667  0.083333  0.000000     24.000000
  0.194444  0.083333  0.000000     24.000000
  0.222222  0.083333  0.000000     24.000000
  0.250000  0.083333  0.000000     24.000000
  0.277778  0.083333  0.000000     24.000000
  0.305556  0.083333  0.000000     24.000000
  0.333333  0.083333  0.000000     24.000000
  0.361111  0.083333  0.000000     24.000000
  0.388889  0.083333  0.000000     24.000000
  0.416667  0.083333  0.000000     24.000000
  0.444444  0.083333  0.000000     24.000000
  0.472222  0.083333  0.000000     24.000000
  0.500000  0.083333  0.000000     24.000000
 -0.472222  0.083333  0.000000     24.000000
 -0.444444  0.083333  0.000000     24.000000
 -0.416667  0.083333  0.000000     24.000000
 -0.388889  0.083333  0.000000     24.000000
 -0.361111  0.083333  0.000000     24.000000
 -0.333333  0.083333  0.000000     24.000000
 -0.305556  0.083333  0.000000     24.000000
 -0.277778  0.083333  0.000000     24.000000
 -0.250000  0.083333  0.000000     24.000000
 -0.222222  0.083333  0.000000     24.000000
 -0.194444  0.083333  0.000000     24.000000
 -0.166667  0.083333  0.000000     24.000000
 -0.138889  0.083333  0.000000     24.000000
 -0.111111  0.083333  0.000000     24.000000
 -0.083333  0.083333  0.000000     12.000000
  0.111111  0.111111  0.000000      6.000000
  0.138889  0.111111  0.000000     24.000000
  0.166667  0.111111  0.000000     24.000000
  0.194444  0.111111  0.000000     24.000000
  0.222222  0.111111  0.000000     24.000000
  0.250000  0.111111  0.000000     24.000000
  0.277778  0.111111  0.000000     24.000000
  0.305556  0.111111  0.000000     24.000000
  0.333333  0.111111  0.000000     24.000000
  0.361111  0.111111  0.000000     24.000000
  0.388889  0.111111  0.000000     24.000000
  0.416667  0.111111  0.000000     24.000000
  0.444444  0.111111  0.000000     24.000000
  0.472222  0.111111  0.000000     24.000000
  0.500000  0.111111  0.000000     24.000000
 -0.472222  0.111111  0.000000     24.000000
 -0.444444  0.111111  0.000000     24.000000
 -0.416667  0.111111  0.000000     24.000000
 -0.388889  0.111111  0.000000     24.000000
 -0.361111  0.111111  0.000000     24.000000
 -0.333333  0.111111  0.000000     24.000000
 -0.305556  0.111111  0.000000     24.000000
 -0.277778  0.111111  0.000000     24.000000
 -0.250000  0.111111  0.000000     24.000000
 -0.222222  0.111111  0.000000     24.000000
 -0.194444  0.111111  0.000000     24.000000
 -0.166667  0.111111  0.000000     24.000000
 -0.138889  0.111111  0.000000     24.000000
 -0.111111  0.111111  0.000000     12.000000
  0.138889  0.138889  0.000000      6.000000
  0.166667  0.138889  0.000000     24.000000
  0.194444  0.138889  0.000000     24.000000
  0.222222  0.138889  0.000000     24.000000
  0.250000  0.138889  0.000000     24.000000
  0.277778  0.138889  0.000000     24.000000
  0.305556  0.138889  0.000000     24.000000
  0.333333  0.138889  0.000000     24.000000
  0.361111  0.138889  0.000000     24.000000
  0.388889  0.138889  0.000000     24.000000
  0.416667  0.138889  0.000000     24.000000
  0.444444  0.138889  0.000000     24.000000
  0.472222  0.138889  0.000000     24.000000
  0.500000  0.138889  0.000000     24.000000
 -0.472222  0.138889  0.000000     24.000000
 -0.444444  0.138889  0.000000     24.000000
 -0.416667  0.138889  0.000000     24.000000
 -0.388889  0.138889  0.000000     24.000000
 -0.361111  0.138889  0.000000     24.000000
 -0.333333  0.138889  0.000000     24.000000
 -0.305556  0.138889  0.000000     24.000000
 -0.277778  0.138889  0.000000     24.000000
 -0.250000  0.138889  0.000000     24.000000
 -0.222222  0.138889  0.000000     24.000000
 -0.194444  0.138889  0.000000     24.000000
 -0.166667  0.138889  0.000000     24.000000
 -0.138889  0.138889  0.000000     12.000000
  0.166667  0.166667  0.000000      6.000000
  0.194444  0.166667  0.000000     24.000000
  0.222222  0.166667  0.000000     24.000000
  0.250000  0.166667  0.000000     24.000000
  0.277778  0.166667  0.000000     24.000000
  0.305556  0.166667  0.000000     24.000000
  0.333333  0.166667  0.000000     24.000000
  0.361111  0.166667  0.000000     24.000000
  0.388889  0.166667  0.000000     24.000000
  0.416667  0.166667  0.000000     24.000000
  0.444444  0.166667  0.000000     24.000000
  0.472222  0.166667  0.000000     24.000000
  0.500000  0.166667  0.000000     24.000000
 -0.472222  0.166667  0.000000     24.000000
 -0.444444  0.166667  0.000000     24.000000
 -0.416667  0.166667  0.000000     24.000000
 -0.388889  0.166667  0.000000     24.000000
 -0.361111  0.166667  0.000000     24.000000
 -0.333333  0.166667  0.000000     24.000000
 -0.305556  0.166667  0.000000     24.000000
 -0.277778  0.166667  0.000000     24.000000
 -0.250000  0.166667  0.000000     24.000000
 -0.222222  0.166667  0.000000     24.000000
 -0.194444  0.166667  0.000000     24.000000
 -0.166667  0.166667  0.000000     12.000000
  0.194444  0.194444  0.000000      6.000000
  0.222222  0.194444  0.000000     24.000000
  0.250000  0.194444  0.000000     24.000000
  0.277778  0.194444  0.000000     24.000000
  0.305556  0.194444  0.000000     24.000000
  0.333333  0.194444  0.000000     24.000000
  0.361111  0.194444  0.000000     24.000000
  0.388889  0.194444  0.000000     24.000000
  0.416667  0.194444  0.000000     24.000000
  0.444444  0.194444  0.000000     24.000000
  0.472222  0.194444  0.000000     24.000000
  0.500000  0.194444  0.000000     24.000000
 -0.472222  0.194444  0.000000     24.000000
 -0.444444  0.194444  0.000000     24.000000
 -0.416667  0.194444  0.000000     24.000000
 -0.388889  0.194444  0.000000     24.000000
 -0.361111  0.194444  0.000000     24.000000
 -0.333333  0.194444  0.000000     24.000000
 -0.305556  0.194444  0.000000     24.000000
 -0.277778  0.194444  0.000000     24.000000
 -0.250000  0.194444  0.000000     24.000000
 -0.222222  0.194444  0.000000     24.000000
 -0.194444  0.194444  0.000000     12.000000
  0.222222  0.222222  0.000000      6.000000
  0.250000  0.222222  0.000000     24.000000
  0.277778  0.222222  0.000000     24.000000
  0.305556  0.222222  0.000000     24.000000
  0.333333  0.222222  0.000000     24.000000
  0.361111  0.222222  0.000000     24.000000
  0.388889  0.222222  0.000000     24.000000
  0.416667  0.222222  0.000000     24.000000
  0.444444  0.222222  0.000000     24.000000
  0.472222  0.222222  0.000000     24.000000
  0.500000  0.222222  0.000000     24.000000
 -0.472222  0.222222  0.000000     24.000000
 -0.444444  0.222222  0.000000     24.000000
 -0.416667  0.222222  0.000000     24.000000
 -0.388889  0.222222  0.000000     24.000000
 -0.361111  0.222222  0.000000     24.000000
 -0.333333  0.222222  0.000000     24.000000
 -0.305556  0.222222  0.000000     24.000000
 -0.277778  0.222222  0.000000     24.000000
 -0.250000  0.222222  0.000000     24.000000
 -0.222222  0.222222  0.000000     12.000000
  0.250000  0.250000  0.000000      6.000000
  0.277778  0.250000  0.000000     24.000000
  0.305556  0.250000  0.000000     24.000000
  0.333333  0.250000  0.000000     24.000000
  0.361111  0.250000  0.000000     24.000000
  0.388889  0.250000  0.000000     24.000000
  0.416667  0.250000  0.000000     24.000000
  0.444444  0.250000  0.000000     24.000000
  0.472222  0.250000  0.000000     24.000000
  0.500000  0.250000  0.000000     24.000000
 -0.472222  0.250000  0.000000     24.000000
 -0.444444  0.250000  0.000000     24.000000
 -0.416667  0.250000  0.000000     24.000000
 -0.388889  0.250000  0.000000     24.000000
 -0.361111  0.250000  0.000000     24.000000
 -0.333333  0.250000  0.000000     24.000000
 -0.305556  0.250000  0.000000     24.000000
 -0.277778  0.250000  0.000000     24.000000
 -0.250000  0.250000  0.000000     12.000000
  0.277778  0.277778  0.000000      6.000000
  0.305556  0.277778  0.000000     24.000000
  0.333333  0.277778  0.000000     24.000000
  0.361111  0.277778  0.000000     24.000000
  0.388889  0.277778  0.000000     24.000000
  0.416667  0.277778  0.000000     24.000000
  0.444444  0.277778  0.000000     24.000000
  0.472222  0.277778  0.000000     24.000000
  0.500000  0.277778  0.000000     24.000000
 -0.472222  0.277778  0.000000     24.000000
 -0.444444  0.277778  0.000000     24.000000
 -0.416667  0.277778  0.000000     24.000000
 -0.388889  0.277778  0.000000     24.000000
 -0.361111  0.277778  0.000000     24.000000
 -0.333333  0.277778  0.000000     24.000000
 -0.305556  0.277778  0.000000     24.000000
 -0.277778  0.277778  0.000000     12.000000
  0.305556  0.305556  0.000000      6.000000
  0.333333  0.305556  0.000000     24.000000
  0.361111  0.305556  0.000000     24.000000
  0.388889  0.305556  0.000000     24.000000
  0.416667  0.305556  0.000000     24.000000
  0.444444  0.305556  0.000000     24.000000
  0.472222  0.305556  0.000000     24.000000
  0.500000  0.305556  0.000000     24.000000
 -0.472222  0.305556  0.000000     24.000000
 -0.444444  0.305556  0.000000     24.000000
 -0.416667  0.305556  0.000000     24.000000
 -0.388889  0.305556  0.000000     24.000000
 -0.361111  0.305556  0.000000     24.000000
 -0.333333  0.305556  0.000000     24.000000
 -0.305556  0.305556  0.000000     12.000000
  0.333333  0.333333  0.000000      6.000000
  0.361111  0.333333  0.000000     24.000000
  0.388889  0.333333  0.000000     24.000000
  0.416667  0.333333  0.000000     24.000000
  0.444444  0.333333  0.000000     24.000000
  0.472222  0.333333  0.000000     24.000000
  0.500000  0.333333  0.000000     24.000000
 -0.472222  0.333333  0.000000     24.000000
 -0.444444  0.333333  0.000000     24.000000
 -0.416667  0.333333  0.000000     24.000000
 -0.388889  0.333333  0.000000     24.000000
 -0.361111  0.333333  0.000000     24.000000
 -0.333333  0.333333  0.000000     12.000000
  0.361111  0.361111  0.000000      6.000000
  0.388889  0.361111  0.000000     24.000000
  0.416667  0.361111  0.000000     24.000000
  0.444444  0.361111  0.000000     24.000000
  0.472222  0.361111  0.000000     24.000000
  0.500000  0.361111  0.000000     24.000000
 -0.472222  0.361111  0.000000     24.000000
 -0.444444  0.361111  0.000000     24.000000
 -0.416667  0.361111  0.000000     24.000000
 -0.388889  0.361111  0.000000     24.000000
 -0.361111  0.361111  0.000000     12.000000
  0.388889  0.388889  0.000000      6.000000
  0.416667  0.388889  0.000000     24.000000
  0.444444  0.388889  0.000000     24.000000
  0.472222  0.388889  0.000000     24.000000
  0.500000  0.388889  0.000000     24.000000
 -0.472222  0.388889  0.000000     24.000000
 -0.444444  0.388889  0.000000     24.000000
 -0.416667  0.388889  0.000000     24.000000
 -0.388889  0.388889  0.000000     12.000000
  0.416667  0.416667  0.000000      6.000000
  0.444444  0.416667  0.000000     24.000000
  0.472222  0.416667  0.000000     24.000000
  0.500000  0.416667  0.000000     24.000000
 -0.472222  0.416667  0.000000     24.000000
 -0.444444  0.416667  0.000000     24.000000
 -0.416667  0.416667  0.000000     12.000000
  0.444444  0.444444  0.000000      6.000000
  0.472222  0.444444  0.000000     24.000000
  0.500000  0.444444  0.000000     24.000000
 -0.472222  0.444444  0.000000     24.000000
 -0.444444  0.444444  0.000000     12.000000
  0.472222  0.472222  0.000000      6.000000
  0.500000  0.472222  0.000000     24.000000
 -0.472222  0.472222  0.000000     12.000000
  0.500000  0.500000  0.000000      3.000000
  0.083333  0.055556  0.027778     24.000000
  0.111111  0.055556  0.027778     48.000000
  0.138889  0.055556  0.027778     48.000000
  0.166667  0.055556  0.027778     48.000000
  0.194444  0.055556  0.027778     48.000000
  0.222222  0.055556  0.027778     48.000000
  0.250000  0.055556  0.027778     48.000000
  0.277778  0.055556  0.027778     48.000000
  0.305556  0.055556  0.027778     48.000000
  0.333333  0.055556  0.027778     48.000000
  0.361111  0.055556  0.027778     48.000000
  0.388889  0.055556  0.027778     48.000000
  0.416667  0.055556  0.027778     48.000000
  0.444444  0.055556  0.027778     48.000000
  0.472222  0.055556  0.027778     48.000000
  0.500000  0.055556  0.027778     48.000000
 -0.472222  0.055556  0.027778     24.000000
  0.111111  0.083333  0.027778     24.000000
  0.138889  0.083333  0.027778     48.000000
  0.166667  0.083333  0.027778     48.000000
  0.194444  0.083333  0.027778     48.000000
  0.222222  0.083333  0.027778     48.000000
  0.250000  0.083333  0.027778     48.000000
  0.277778  0.083333  0.027778     48.000000
  0.305556  0.083333  0.027778     48.000000
  0.333333  0.083333  0.027778     48.000000
  0.361111  0.083333  0.027778     48.000000
  0.388889  0.083333  0.027778     48.000000
  0.416667  0.083333  0.027778     48.000000
  0.444444  0.083333  0.027778     48.000000
  0.472222  0.083333  0.027778     48.000000
  0.500000  0.083333  0.027778     48.000000
 -0.472222  0.083333  0.027778     48.000000
 -0.444444  0.083333  0.027778     48.000000
 -0.416667  0.083333  0.027778     48.000000
 -0.388889  0.083333  0.027778     48.000000
 -0.361111  0.083333  0.027778     48.000000
 -0.333333  0.083333  0.027778     48.000000
 -0.305556  0.083333  0.027778     48.000000
 -0.277778  0.083333  0.027778     48.000000
 -0.250000  0.083333  0.027778     48.000000
 -0.222222  0.083333  0.027778     48.000000
 -0.194444  0.083333  0.027778     48.000000
 -0.166667  0.083333  0.027778     48.000000
 -0.138889  0.083333  0.027778     48.000000
 -0.111111  0.083333  0.027778     48.000000
 -0.083333  0.083333  0.027778     48.000000
 -0.055556  0.083333  0.027778     24.000000
  0.138889  0.111111  0.027778     24.000000
  0.166667  0.111111  0.027778     48.000000
  0.194444  0.111111  0.027778     48.000000
  0.222222  0.111111  0.027778     48.000000
  0.250000  0.111111  0.027778     48.000000
  0.277778  0.111111  0.027778     48.000000
  0.305556  0.111111  0.027778     48.000000
  0.333333  0.111111  0.027778     48.000000
  0.361111  0.111111  0.027778     48.000000
  0.388889  0.111111  0.027778     48.000000
  0.416667  0.111111  0.027778     48.000000
  0.444444  0.111111  0.027778     48.000000
  0.472222  0.111111  0.027778     48.000000
  0.500000  0.111111  0.027778     48.000000
 -0.472222  0.111111  0.027778     48.000000
 -0.444444  0.111111  0.027778     48.000000
 -0.416667  0.111111  0.027778     48.000000
 -0.388889  0.111111  0.027778     48.000000
 -0.361111  0.111111  0.027778     48.000000
 -0.333333  0.111111  0.027778     48.000000
 -0.305556  0.111111  0.027778     48.000000
 -0.277778  0.111111  0.027778     48.000000
 -0.250000  0.111111  0.027778     48.000000
 -0.222222  0.111111  0.027778     48.000000
 -0.194444  0.111111  0.027778     48.000000
 -0.166667  0.111111  0.027778     48.000000
 -0.138889  0.111111  0.027778     48.000000
 -0.111111  0.111111  0.027778     48.000000
 -0.083333  0.111111  0.027778     24.000000
  0.166667  0.138889  0.027778     24.000000
  0.194444  0.138889  0.027778     48.000000
  0.222222  0.138889  0.027778     48.000000
  0.250000  0.138889  0.027778     48.000000
  0.277778  0.138889  0.027778     48.000000
  0.305556  0.138889  0.027778     48.000000
  0.333333  0.138889  0.027778     48.000000
  0.361111  0.138889  0.027778     48.000000
  0.388889  0.138889  0.027778     48.000000
  0.416667  0.138889  0.027778     48.000000
  0.444444  0.138889  0.027778     48.000000
  0.472222  0.138889  0.027778     48.000000
  0.500000  0.138889  0.027778     48.000000
 -0.472222  0.138889  0.027778     48.000000
 -0.444444  0.138889  0.027778     48.000000
 -0.416667  0.138889  0.027778     48.000000
 -0.388889  0.138889  0.027778     48.000000
 -0.361111  0.138889  0.027778     48.000000
 -0.333333  0.138889  0.027778     48.000000
 -0.305556  0.138889  0.027778     48.000000
 -0.277778  0.138889  0.027778     48.000000
 -0.250000  0.138889  0.027778     48.000000
 -0.222222  0.138889  0.027778     48.000000
 -0.194444  0.138889  0.027778     48.000000
 -0.166667  0.138889  0.027778     48.000000
 -0.138889  0.138889  0.027778     48.000000
 -0.111111  0.138889  0.027778     24.000000
  0.194444  0.166667  0.027778     24.000000
  0.222222  0.166667  0.027778     48.000000
  0.250000  0.166667  0.027778     48.000000
  0.277778  0.166667  0.027778     48.000000
  0.305556  0.166667  0.027778     48.000000
  0.333333  0.166667  0.027778     48.000000
  0.361111  0.166667  0.027778     48.000000
  0.388889  0.166667  0.027778     48.000000
  0.416667  0.166667  0.027778     48.000000
  0.444444  0.166667  0.027778     48.000000
  0.472222  0.166667  0.027778     48.000000
  0.500000  0.166667  0.027778     48.000000
 -0.472222  0.166667  0.027778     48.000000
 -0.444444  0.166667  0.027778     48.000000
 -0.416667  0.166667  0.027778     48.000000
 -0.388889  0.166667  0.027778     48.000000
 -0.361111  0.166667  0.027778     48.000000
 -0.333333  0.166667  0.027778     48.000000
 -0.305556  0.166667  0.027778     48.000000
 -0.277778  0.166667  0.027778     48.000000
 -0.250000  0.166667  0.027778     48.000000
 -0.222222  0.166667  0.027778     48.000000
 -0.194444  0.166667  0.027778     48.000000
 -0.166667  0.166667  0.027778     48.000000
 -0.138889  0.166667  0.027778     24.000000
  0.222222  0.194444  0.027778     24.000000
  0.250000  0.194444  0.027778     48.000000
  0.277778  0.194444  0.027778     48.000000
  0.305556  0.194444  0.027778     48.000000
  0.333333  0.194444  0.027778     48.000000
  0.361111  0.194444  0.027778     48.000000
  0.388889  0.194444  0.027778     48.000000
  0.416667  0.194444  0.027778     48.000000
  0.444444  0.194444  0.027778     48.000000
  0.472222  0.194444  0.027778     48.000000
  0.500000  0.194444  0.027778     48.000000
 -0.472222  0.194444  0.027778     48.000000
 -0.444444  0.194444  0.027778     48.000000
 -0.416667  0.194444  0.027778     48.000000
 -0.388889  0.194444  0.027778     48.000000
 -0.361111  0.194444  0.027778     48.000000
 -0.333333  0.194444  0.027778     48.000000
 -0.305556  0.194444  0.027778     48.000000
 -0.277778  0.194444  0.027778     48.000000
 -0.250000  0.194444  0.027778     48.000000
 -0.222222  0.194444  0.027778     48.000000
 -0.194444  0.194444  0.027778     48.000000
 -0.166667  0.194444  0.027778     24.000000
  0.250000  0.222222  0.027778     24.000000
  0.277778  0.222222  0.027778     48.000000
  0.305556  0.222222  0.027778     48.000000
  0.333333  0.222222  0.027778     48.000000
  0.361111  0.222222  0.027778     48.000000
  0.388889  0.222222  0.027778     48.000000
  0.416667  0.222222  0.027778     48.000000
  0.444444  0.222222  0.027778     48.000000
  0.472222  0.222222  0.027778     48.000000
  0.500000  0.222222  0.027778     48.000000
 -0.472222  0.222222  0.027778     48.000000
 -0.444444  0.222222  0.027778     48.000000
 -0.416667  0.222222  0.027778     48.000000
 -0.388889  0.222222  0.027778     48.000000
 -0.361111  0.222222  0.027778     48.000000
 -0.333333  0.222222  0.027778     48.000000
 -0.305556  0.222222  0.027778     48.000000
 -0.277778  0.222222  0.027778     48.000000
 -0.250000  0.222222  0.027778     48.000000
 -0.222222  0.222222  0.027778     48.000000
 -0.194444  0.222222  0.027778     24.000000
  0.277778  0.250000  0.027778     24.000000
  0.305556  0.250000  0.027778     48.000000
  0.333333  0.250000  0.027778     48.000000
  0.361111  0.250000  0.027778     48.000000
  0.388889  0.250000  0.027778     48.000000
  0.416667  0.250000  0.027778     48.000000
  0.444444  0.250000  0.027778     48.000000
  0.472222  0.250000  0.027778     48.000000
  0.500000  0.250000  0.027778     48.000000
 -0.472222  0.250000  0.027778     48.000000
 -0.444444  0.250000  0.027778     48.000000
 -0.416667  0.250000  0.027778     48.000000
 -0.388889  0.250000  0.027778     48.000000
 -0.361111  0.250000  0.027778     48.000000
 -0.333333  0.250000  0.027778     48.000000
 -0.305556  0.250000  0.027778     48.000000
 -0.277778  0.250000  0.027778     48.000000
 -0.250000  0.250000  0.027778     48.000000
 -0.222222  0.250000  0.027778     24.000000
  0.305556  0.277778  0.027778     24.000000
  0.333333  0.277778  0.027778     48.000000
  0.361111  0.277778  0.027778     48.000000
  0.388889  0.277778  0.027778     48.000000
  0.416667  0.277778  0.027778     48.000000
  0.444444  0.277778  0.027778     48.000000
  0.472222  0.277778  0.027778     48.000000
  0.500000  0.277778  0.027778     48.000000
 -0.472222  0.277778  0.027778     48.000000
 -0.444444  0.277778  0.027778     48.000000
 -0.416667  0.277778  0.027778     48.000000
 -0.388889  0.277778  0.027778     48.000000
 -0.361111  0.277778  0.027778     48.000000
 -0.333333  0.277778  0.027778     48.000000
 -0.305556  0.277778  0.027778     48.000000
 -0.277778  0.277778  0.027778     48.000000
 -0.250000  0.277778  0.027778     24.000000
  0.333333  0.305556  0.027778     24.000000
  0.361111  0.305556  0.027778     48.000000
  0.388889  0.305556  0.027778     48.000000
  0.416667  0.305556  0.027778     48.000000
  0.444444  0.305556  0.027778     48.000000
  0.472222  0.305556  0.027778     48.000000
  0.500000  0.305556  0.027778     48.000000
 -0.472222  0.305556  0.027778     48.000000
 -0.444444  0.305556  0.027778     48.000000
 -0.416667  0.305556  0.027778     48.000000
 -0.388889  0.305556  0.027778     48.000000
 -0.361111  0.305556  0.027778     48.000000
 -0.333333  0.305556  0.027778     48.000000
 -0.305556  0.305556  0.027778     48.000000
 -0.277778  0.305556  0.027778     24.000000
  0.361111  0.333333  0.027778     24.000000
  0.388889  0.333333  0.027778     48.000000
  0.416667  0.333333  0.027778     48.000000
  0.444444  0.333333  0.027778     48.000000
  0.472222  0.333333  0.027778     48.000000
  0.500000  0.333333  0.027778     48.000000
 -0.472222  0.333333  0.027778     48.000000
 -0.444444  0.333333  0.027778     48.000000
 -0.416667  0.333333  0.027778     48.000000
 -0.388889  0.333333  0.027778     48.000000
 -0.361111  0.333333  0.027778     48.000000
 -0.333333  0.333333  0.027778     48.000000
 -0.305556  0.333333  0.027778     24.000000
  0.388889  0.361111  0.027778     24.000000
  0.416667  0.361111  0.027778     48.000000
  0.444444  0.361111  0.027778     48.000000
  0.472222  0.361111  0.027778     48.000000
  0.500000  0.361111  0.027778     48.000000
 -0.472222  0.361111  0.027778     48.000000
 -0.444444  0.361111  0.027778     48.000000
 -0.416667  0.361111  0.027778     48.000000
 -0.388889  0.361111  0.027778     48.000000
 -0.361111  0.361111  0.027778     48.000000
 -0.333333  0.361111  0.027778     24.000000
  0.416667  0.388889  0.027778     24.000000
  0.444444  0.388889  0.027778     48.000000
  0.472222  0.388889  0.027778     48.000000
  0.500000  0.388889  0.027778     48.000000
 -0.472222  0.388889  0.027778     48.000000
 -0.444444  0.388889  0.027778     48.000000
 -0.416667  0.388889  0.027778     48.000000
 -0.388889  0.388889  0.027778     48.000000
 -0.361111  0.388889  0.027778     24.000000
  0.444444  0.416667  0.027778     24.000000
  0.472222  0.416667  0.027778     48.000000
  0.500000  0.416667  0.027778     48.000000
 -0.472222  0.416667  0.027778     48.000000
 -0.444444  0.416667  0.027778     48.000000
 -0.416667  0.416667  0.027778     48.000000
 -0.388889  0.416667  0.027778     24.000000
  0.472222  0.444444  0.027778     24.000000
  0.500000  0.444444  0.027778     48.000000
 -0.472222  0.444444  0.027778     48.000000
 -0.444444  0.444444  0.027778     48.000000
 -0.416667  0.444444  0.027778     24.000000
  0.500000  0.472222  0.027778     24.000000
 -0.472222  0.472222  0.027778     48.000000
 -0.444444  0.472222  0.027778     24.000000
 -0.472222  0.500000  0.027778     12.000000
  0.166667  0.111111  0.055556     24.000000
  0.194444  0.111111  0.055556     48.000000
  0.222222  0.111111  0.055556     48.000000
  0.250000  0.111111  0.055556     48.000000
  0.277778  0.111111  0.055556     48.000000
  0.305556  0.111111  0.055556     48.000000
  0.333333  0.111111  0.055556     48.000000
  0.361111  0.111111  0.055556     48.000000
  0.388889  0.111111  0.055556     48.000000
  0.416667  0.111111  0.055556     48.000000
  0.444444  0.111111  0.055556     48.000000
  0.472222  0.111111  0.055556     48.000000
  0.500000  0.111111  0.055556     48.000000
 -0.472222  0.111111  0.055556     48.000000
 -0.444444  0.111111  0.055556     24.000000
  0.194444  0.138889  0.055556     24.000000
  0.222222  0.138889  0.055556     48.000000
  0.250000  0.138889  0.055556     48.000000
  0.277778  0.138889  0.055556     48.000000
  0.305556  0.138889  0.055556     48.000000
  0.333333  0.138889  0.055556     48.000000
  0.361111  0.138889  0.055556     48.000000
  0.388889  0.138889  0.055556     48.000000
  0.416667  0.138889  0.055556     48.000000
  0.444444  0.138889  0.055556     48.000000
  0.472222  0.138889  0.055556     48.000000
  0.500000  0.138889  0.055556     48.000000
 -0.472222  0.138889  0.055556     48.000000
 -0.444444  0.138889  0.055556     48.000000
 -0.416667  0.138889  0.055556     48.000000
 -0.388889  0.138889  0.055556     48.000000
 -0.361111  0.138889  0.055556     48.000000
 -0.333333  0.138889  0.055556     48.000000
 -0.305556  0.138889  0.055556     48.000000
 -0.277778  0.138889  0.055556     48.000000
 -0.250000  0.138889  0.055556     48.000000
 -0.222222  0.138889  0.055556     48.000000
 -0.194444  0.138889  0.055556     48.000000
 -0.166667  0.138889  0.055556     48.000000
 -0.138889  0.138889  0.055556     48.000000
 -0.111111  0.138889  0.055556     48.000000
 -0.083333  0.138889  0.055556     24.000000
  0.222222  0.166667  0.055556     24.000000
  0.250000  0.166667  0.055556     48.000000
  0.277778  0.166667  0.055556     48.000000
  0.305556  0.166667  0.055556     48.000000
  0.333333  0.166667  0.055556     48.000000
  0.361111  0.166667  0.055556     48.000000
  0.388889  0.166667  0.055556     48.000000
  0.416667  0.166667  0.055556     48.000000
  0.444444  0.166667  0.055556     48.000000
  0.472222  0.166667  0.055556     48.000000
  0.500000  0.166667  0.055556     48.000000
 -0.472222  0.166667  0.055556     48.000000
 -0.444444  0.166667  0.055556     48.000000
 -0.416667  0.166667  0.055556     48.000000
 -0.388889  0.166667  0.055556     48.000000
 -0.361111  0.166667  0.055556     48.000000
 -0.333333  0.166667  0.055556     48.000000
 -0.305556  0.166667  0.055556     48.000000
 -0.277778  0.166667  0.055556     48.000000
 -0.250000  0.166667  0.055556     48.000000
 -0.222222  0.166667  0.055556     48.000000
 -0.194444  0.166667  0.055556     48.000000
 -0.166667  0.166667  0.055556     48.000000
 -0.138889  0.166667  0.055556     48.000000
 -0.111111  0.166667  0.055556     24.000000
  0.250000  0.194444  0.055556     24.000000
  0.277778  0.194444  0.055556     48.000000
  0.305556  0.194444  0.055556     48.000000
  0.333333  0.194444  0.055556     48.000000
  0.361111  0.194444  0.055556     48.000000
  0.388889  0.194444  0.055556     48.000000
  0.416667  0.194444  0.055556     48.000000
  0.444444  0.194444  0.055556     48.000000
  0.472222  0.194444  0.055556     48.000000
  0.500000  0.194444  0.055556     48.000000
 -0.472222  0.194444  0.055556     48.000000
 -0.444444  0.194444  0.055556     48.000000
 -0.416667  0.194444  0.055556     48.000000
 -0.388889  0.194444  0.055556     48.000000
 -0.361111  0.194444  0.055556     48.000000
 -0.333333  0.194444  0.055556     48.000000
 -0.305556  0.194444  0.055556     48.000000
 -0.277778  0.194444  0.055556     48.000000
 -0.250000  0.194444  0.055556     48.000000
 -0.222222  0.194444  0.055556     48.000000
 -0.194444  0.194444  0.055556     48.000000
 -0.166667  0.194444  0.055556     48.000000
 -0.138889  0.194444  0.055556     24.000000
  0.277778  0.222222  0.055556     24.000000
  0.305556  0.222222  0.055556     48.000000
  0.333333  0.222222  0.055556     48.000000
  0.361111  0.222222  0.055556     48.000000
  0.388889  0.222222  0.055556     48.000000
  0.416667  0.222222  0.055556     48.000000
  0.444444  0.222222  0.055556     48.000000
  0.472222  0.222222  0.055556     48.000000
  0.500000  0.222222  0.055556     48.000000
 -0.472222  0.222222  0.055556     48.000000
 -0.444444  0.222222  0.055556     48.000000
 -0.416667  0.222222  0.055556     48.000000
 -0.388889  0.222222  0.055556     48.000000
 -0.361111  0.222222  0.055556     48.000000
 -0.333333  0.222222  0.055556     48.000000
 -0.305556  0.222222  0.055556     48.000000
 -0.277778  0.222222  0.055556     48.000000
 -0.250000  0.222222  0.055556     48.000000
 -0.222222  0.222222  0.055556     48.000000
 -0.194444  0.222222  0.055556     48.000000
 -0.166667  0.222222  0.055556     24.000000
  0.305556  0.250000  0.055556     24.000000
  0.333333  0.250000  0.055556     48.000000
  0.361111  0.250000  0.055556     48.000000
  0.388889  0.250000  0.055556     48.000000
  0.416667  0.250000  0.055556     48.000000
  0.444444  0.250000  0.055556     48.000000
  0.472222  0.250000  0.055556     48.000000
  0.500000  0.250000  0.055556     48.000000
 -0.472222  0.250000  0.055556     48.000000
 -0.444444  0.250000  0.055556     48.000000
 -0.416667  0.250000  0.055556     48.000000
 -0.388889  0.250000  0.055556     48.000000
 -0.361111  0.250000  0.055556     48.000000
 -0.333333  0.250000  0.055556     48.000000
 -0.305556  0.250000  0.055556     48.000000
 -0.277778  0.250000  0.055556     48.000000
 -0.250000  0.250000  0.055556     48.000000
 -0.222222  0.250000  0.055556     48.000000
 -0.194444  0.250000  0.055556     24.000000
  0.333333  0.277778  0.055556     24.000000
  0.361111  0.277778  0.055556     48.000000
  0.388889  0.277778  0.055556     48.000000
  0.416667  0.277778  0.055556     48.000000
  0.444444  0.277778  0.055556     48.000000
  0.472222  0.277778  0.055556     48.000000
  0.500000  0.277778  0.055556     48.000000
 -0.472222  0.277778  0.055556     48.000000
 -0.444444  0.277778  0.055556     48.000000
 -0.416667  0.277778  0.055556     48.000000
 -0.388889  0.277778  0.055556     48.000000
 -0.361111  0.277778  0.055556     48.000000
 -0.333333  0.277778  0.055556     48.000000
 -0.305556  0.277778  0.055556     48.000000
 -0.277778  0.277778  0.055556     48.000000
 -0.250000  0.277778  0.055556     48.000000
 -0.222222  0.277778  0.055556     24.000000
  0.361111  0.305556  0.055556     24.000000
  0.388889  0.305556  0.055556     48.000000
  0.416667  0.305556  0.055556     48.000000
  0.444444  0.305556  0.055556     48.000000
  0.472222  0.305556  0.055556     48.000000
  0.500000  0.305556  0.055556     48.000000
 -0.472222  0.305556  0.055556     48.000000
 -0.444444  0.305556  0.055556     48.000000
 -0.416667  0.305556  0.055556     48.000000
 -0.388889  0.305556  0.055556     48.000000
 -0.361111  0.305556  0.055556     48.000000
 -0.333333  0.305556  0.055556     48.000000
 -0.305556  0.305556  0.055556     48.000000
 -0.277778  0.305556  0.055556     48.000000
 -0.250000  0.305556  0.055556     24.000000
  0.388889  0.333333  0.055556     24.000000
  0.416667  0.333333  0.055556     48.000000
  0.444444  0.333333  0.055556     48.000000
  0.472222  0.333333  0.055556     48.000000
  0.500000  0.333333  0.055556     48.000000
 -0.472222  0.333333  0.055556     48.000000
 -0.444444  0.333333  0.055556     48.000000
 -0.416667  0.333333  0.055556     48.000000
 -0.388889  0.333333  0.055556     48.000000
 -0.361111  0.333333  0.055556     48.000000
 -0.333333  0.333333  0.055556     48.000000
 -0.305556  0.333333  0.055556     48.000000
 -0.277778  0.333333  0.055556     24.000000
  0.416667  0.361111  0.055556     24.000000
  0.444444  0.361111  0.055556     48.000000
  0.472222  0.361111  0.055556     48.000000
  0.500000  0.361111  0.055556     48.000000
 -0.472222  0.361111  0.055556     48.000000
 -0.444444  0.361111  0.055556     48.000000
 -0.416667  0.361111  0.055556     48.000000
 -0.388889  0.361111  0.055556     48.000000
 -0.361111  0.361111  0.055556     48.000000
 -0.333333  0.361111  0.055556     48.000000
 -0.305556  0.361111  0.055556     24.000000
  0.444444  0.388889  0.055556     24.000000
  0.472222  0.388889  0.055556     48.000000
  0.500000  0.388889  0.055556     48.000000
 -0.472222  0.388889  0.055556     48.000000
 -0.444444  0.388889  0.055556     48.000000
 -0.416667  0.388889  0.055556     48.000000
 -0.388889  0.388889  0.055556     48.000000
 -0.361111  0.388889  0.055556     48.000000
 -0.333333  0.388889  0.055556     24.000000
  0.472222  0.416667  0.055556     24.000000
  0.500000  0.416667  0.055556     48.000000
 -0.472222  0.416667  0.055556     48.000000
 -0.444444  0.416667  0.055556     48.000000
 -0.416667  0.416667  0.055556     48.000000
 -0.388889  0.416667  0.055556     48.000000
 -0.361111  0.416667  0.055556     24.000000
  0.500000  0.444444  0.055556     24.000000
 -0.472222  0.444444  0.055556     48.000000
 -0.444444  0.444444  0.055556     48.000000
 -0.416667  0.444444  0.055556     48.000000
 -0.388889  0.444444  0.055556     24.000000
 -0.472222  0.472222  0.055556     24.000000
 -0.444444  0.472222  0.055556     48.000000
 -0.416667  0.472222  0.055556     24.000000
 -0.444444  0.500000  0.055556     12.000000
  0.250000  0.166667  0.083333     24.000000
  0.277778  0.166667  0.083333     48.000000
  0.305556  0.166667  0.083333     48.000000
  0.333333  0.166667  0.083333     48.000000
  0.361111  0.166667  0.083333     48.000000
  0.388889  0.166667  0.083333     48.000000
  0.416667  0.166667  0.083333     48.000000
  0.444444  0.166667  0.083333     48.000000
  0.472222  0.166667  0.083333     48.000000
  0.500000  0.166667  0.083333     48.000000
 -0.472222  0.166667  0.083333     48.000000
 -0.444444  0.166667  0.083333     48.000000
 -0.416667  0.166667  0.083333     24.000000
  0.277778  0.194444  0.083333     24.000000
  0.305556  0.194444  0.083333     48.000000
  0.333333  0.194444  0.083333     48.000000
  0.361111  0.194444  0.083333     48.000000
  0.388889  0.194444  0.083333     48.000000
  0.416667  0.194444  0.083333     48.000000
  0.444444  0.194444  0.083333     48.000000
  0.472222  0.194444  0.083333     48.000000
  0.500000  0.194444  0.083333     48.000000
 -0.472222  0.194444  0.083333     48.000000
 -0.444444  0.194444  0.083333     48.000000
 -0.416667  0.194444  0.083333     48.000000
 -0.388889  0.194444  0.083333     48.000000
 -0.361111  0.194444  0.083333     48.000000
 -0.333333  0.194444  0.083333     48.000000
 -0.305556  0.194444  0.083333     48.000000
 -0.277778  0.194444  0.083333     48.000000
 -0.250000  0.194444  0.083333     48.000000
 -0.222222  0.194444  0.083333     48.000000
 -0.194444  0.194444  0.083333     48.000000
 -0.166667  0.194444  0.083333     48.000000
 -0.138889  0.194444  0.083333     48.000000
 -0.111111  0.194444  0.083333     24.000000
  0.305556  0.222222  0.083333     24.000000
  0.333333  0.222222  0.083333     48.000000
  0.361111  0.222222  0.083333     48.000000
  0.388889  0.222222  0.083333     48.000000
  0.416667  0.222222  0.083333     48.000000
  0.444444  0.222222  0.083333     48.000000
  0.472222  0.222222  0.083333     48.000000
  0.500000  0.222222  0.083333     48.000000
 -0.472222  0.222222  0.083333     48.000000
 -0.444444  0.222222  0.083333     48.000000
 -0.416667  0.222222  0.083333     48.000000
 -0.388889  0.222222  0.083333     48.000000
 -0.361111  0.222222  0.083333     48.000000
 -0.333333  0.222222  0.083333     48.000000
 -0.305556  0.222222  0.083333     48.000000
 -0.277778  0.222222  0.083333     48.000000
 -0.250000  0.222222  0.083333     48.000000
 -0.222222  0.222222  0.083333     48.000000
 -0.194444  0.222222  0.083333     48.000000
 -0.166667  0.222222  0.083333     48.000000
 -0.138889  0.222222  0.083333     24.000000
  0.333333  0.250000  0.083333     24.000000
  0.361111  0.250000  0.083333     48.000000
  0.388889  0.250000  0.083333     48.000000
  0.416667  0.250000  0.083333     48.000000
  0.444444  0.250000  0.083333     48.000000
  0.472222  0.250000  0.083333     48.000000
  0.500000  0.250000  0.083333     48.000000
 -0.472222  0.250000  0.083333     48.000000
 -0.444444  0.250000  0.083333     48.000000
 -0.416667  0.250000  0.083333     48.000000
 -0.388889  0.250000  0.083333     48.000000
 -0.361111  0.250000  0.083333     48.000000
 -0.333333  0.250000  0.083333     48.000000
 -0.305556  0.250000  0.083333     48.000000
 -0.277778  0.250000  0.083333     48.000000
 -0.250000  0.250000  0.083333     48.000000
 -0.222222  0.250000  0.083333     48.000000
 -0.194444  0.250000  0.083333     48.000000
 -0.166667  0.250000  0.083333     24.000000
  0.361111  0.277778  0.083333     24.000000
  0.388889  0.277778  0.083333     48.000000
  0.416667  0.277778  0.083333     48.000000
  0.444444  0.277778  0.083333     48.000000
  0.472222  0.277778  0.083333     48.000000
  0.500000  0.277778  0.083333     48.000000
 -0.472222  0.277778  0.083333     48.000000
 -0.444444  0.277778  0.083333     48.000000
 -0.416667  0.277778  0.083333     48.000000
 -0.388889  0.277778  0.083333     48.000000
 -0.361111  0.277778  0.083333     48.000000
 -0.333333  0.277778  0.083333     48.000000
 -0.305556  0.277778  0.083333     48.000000
 -0.277778  0.277778  0.083333     48.000000
 -0.250000  0.277778  0.083333     48.000000
 -0.222222  0.277778  0.083333     48.000000
 -0.194444  0.277778  0.083333     24.000000
  0.388889  0.305556  0.083333     24.000000
  0.416667  0.305556  0.083333     48.000000
  0.444444  0.305556  0.083333     48.000000
  0.472222  0.305556  0.083333     48.000000
  0.500000  0.305556  0.083333     48.000000
 -0.472222  0.305556  0.083333     48.000000
 -0.444444  0.305556  0.083333     48.000000
 -0.416667  0.305556  0.083333     48.000000
 -0.388889  0.305556  0.083333     48.000000
 -0.361111  0.305556  0.083333     48.000000
 -0.333333  0.305556  0.083333     48.000000
 -0.305556  0.305556  0.083333     48.000000
 -0.277778  0.305556  0.083333     48.000000
 -0.250000  0.305556  0.083333     48.000000
 -0.222222  0.305556  0.083333     24.000000
  0.416667  0.333333  0.083333     24.000000
  0.444444  0.333333  0.083333     48.000000
  0.472222  0.333333  0.083333     48.000000
  0.500000  0.333333  0.083333     48.000000
 -0.472222  0.333333  0.083333     48.000000
 -0.444444  0.333333  0.083333     48.000000
 -0.416667  0.333333  0.083333     48.000000
 -0.388889  0.333333  0.083333     48.000000
 -0.361111  0.333333  0.083333     48.000000
 -0.333333  0.333333  0.083333     48.000000
 -0.305556  0.333333  0.083333     48.000000
 -0.277778  0.333333  0.083333     48.000000
 -0.250000  0.333333  0.083333     24.000000
  0.444444  0.361111  0.083333     24.000000
  0.472222  0.361111  0.083333     48.000000
  0.500000  0.361111  0.083333     48.000000
 -0.472222  0.361111  0.083333     48.000000
 -0.444444  0.361111  0.083333     48.000000
 -0.416667  0.361111  0.083333     48.000000
 -0.388889  0.361111  0.083333     48.000000
 -0.361111  0.361111  0.083333     48.000000
 -0.333333  0.361111  0.083333     48.000000
 -0.305556  0.361111  0.083333     48.000000
 -0.277778  0.361111  0.083333     24.000000
  0.472222  0.388889  0.083333     24.000000
  0.500000  0.388889  0.083333     48.000000
 -0.472222  0.388889  0.083333     48.000000
 -0.444444  0.388889  0.083333     48.000000
 -0.416667  0.388889  0.083333     48.000000
 -0.388889  0.388889  0.083333     48.000000
 -0.361111  0.388889  0.083333     48.000000
 -0.333333  0.388889  0.083333     48.000000
 -0.305556  0.388889  0.083333     24.000000
  0.500000  0.416667  0.083333     24.000000
 -0.472222  0.416667  0.083333     48.000000
 -0.444444  0.416667  0.083333     48.000000
 -0.416667  0.416667  0.083333     48.000000
 -0.388889  0.416667  0.083333     48.000000
 -0.361111  0.416667  0.083333     48.000000
 -0.333333  0.416667  0.083333     24.000000
 -0.472222  0.444444  0.083333     24.000000
 -0.444444  0.444444  0.083333     48.000000
 -0.416667  0.444444  0.083333     48.000000
 -0.388889  0.444444  0.083333     48.000000
 -0.361111  0.444444  0.083333     24.000000
 -0.444444  0.472222  0.083333     24.000000
 -0.416667  0.472222  0.083333     48.000000
 -0.388889  0.472222  0.083333     24.000000
 -0.416667  0.500000  0.083333     12.000000
  0.333333  0.222222  0.111111     24.000000
  0.361111  0.222222  0.111111     48.000000
  0.388889  0.222222  0.111111     48.000000
  0.416667  0.222222  0.111111     48.000000
  0.444444  0.222222  0.111111     48.000000
  0.472222  0.222222  0.111111     48.000000
  0.500000  0.222222  0.111111     48.000000
 -0.472222  0.222222  0.111111     48.000000
 -0.444444  0.222222  0.111111     48.000000
 -0.416667  0.222222  0.111111     48.000000
 -0.388889  0.222222  0.111111     24.000000
  0.361111  0.250000  0.111111     24.000000
  0.388889  0.250000  0.111111     48.000000
  0.416667  0.250000  0.111111     48.000000
  0.444444  0.250000  0.111111     48.000000
  0.472222  0.250000  0.111111     48.000000
  0.500000  0.250000  0.111111     48.000000
 -0.472222  0.250000  0.111111     48.000000
 -0.444444  0.250000  0.111111     48.000000
 -0.416667  0.250000  0.111111     48.000000
 -0.388889  0.250000  0.111111     48.000000
 -0.361111  0.250000  0.111111     48.000000
 -0.333333  0.250000  0.111111     48.000000
 -0.305556  0.250000  0.111111     48.000000
 -0.277778  0.250000  0.111111     48.000000
 -0.250000  0.250000  0.111111     48.000000
 -0.222222  0.250000  0.111111     48.000000
 -0.194444  0.250000  0.111111     48.000000
 -0.166667  0.250000  0.111111     48.000000
 -0.138889  0.250000  0.111111     24.000000
  0.388889  0.277778  0.111111     24.000000
  0.416667  0.277778  0.111111     48.000000
  0.444444  0.277778  0.111111     48.000000
  0.472222  0.277778  0.111111     48.000000
  0.500000  0.277778  0.111111     48.000000
 -0.472222  0.277778  0.111111     48.000000
 -0.444444  0.277778  0.111111     48.000000
 -0.416667  0.277778  0.111111     48.000000
 -0.388889  0.277778  0.111111     48.000000
 -0.361111  0.277778  0.111111     48.000000
 -0.333333  0.277778  0.111111     48.000000
 -0.305556  0.277778  0.111111     48.000000
 -0.277778  0.277778  0.111111     48.000000
 -0.250000  0.277778  0.111111     48.000000
 -0.222222  0.277778  0.111111     48.000000
 -0.194444  0.277778  0.111111     48.000000
 -0.166667  0.277778  0.111111     24.000000
  0.416667  0.305556  0.111111     24.000000
  0.444444  0.305556  0.111111     48.000000
  0.472222  0.305556  0.111111     48.000000
  0.500000  0.305556  0.111111     48.000000
 -0.472222  0.305556  0.111111     48.000000
 -0.444444  0.305556  0.111111     48.000000
 -0.416667  0.305556  0.111111     48.000000
 -0.388889  0.305556  0.111111     48.000000
 -0.361111  0.305556  0.111111     48.000000
 -0.333333  0.305556  0.111111     48.000000
 -0.305556  0.305556  0.111111     48.000000
 -0.277778  0.305556  0.111111     48.000000
 -0.250000  0.305556  0.111111     48.000000
 -0.222222  0.305556  0.111111     48.000000
 -0.194444  0.305556  0.111111     24.000000
  0.444444  0.333333  0.111111     24.000000
  0.472222  0.333333  0.111111     48.000000
  0.500000  0.333333  0.111111     48.000000
 -0.472222  0.333333  0.111111     48.000000
 -0.444444  0.333333  0.111111     48.000000
 -0.416667  0.333333  0.111111     48.000000
 -0.388889  0.333333  0.111111     48.000000
 -0.361111  0.333333  0.111111     48.000000
 -0.333333  0.333333  0.111111     48.000000
 -0.305556  0.333333  0.111111     48.000000
 -0.277778  0.333333  0.111111     48.000000
 -0.250000  0.333333  0.111111     48.000000
 -0.222222  0.333333  0.111111     24.000000
  0.472222  0.361111  0.111111     24.000000
  0.500000  0.361111  0.111111     48.000000
 -0.472222  0.361111  0.111111     48.000000
 -0.444444  0.361111  0.111111     48.000000
 -0.416667  0.361111  0.111111     48.000000
 -0.388889  0.361111  0.111111     48.000000
 -0.361111  0.361111  0.111111     48.000000
 -0.333333  0.361111  0.111111     48.000000
 -0.305556  0.361111  0.111111     48.000000
 -0.277778  0.361111  0.111111     48.000000
 -0.250000  0.361111  0.111111     24.000000
  0.500000  0.388889  0.111111     24.000000
 -0.472222  0.388889  0.111111     48.000000
 -0.444444  0.388889  0.111111     48.000000
 -0.416667  0.388889  0.111111     48.000000
 -0.388889  0.388889  0.111111     48.000000
 -0.361111  0.388889  0.111111     48.000000
 -0.333333  0.388889  0.111111     48.000000
 -0.305556  0.388889  0.111111     48.000000
 -0.277778  0.388889  0.111111     24.000000
 -0.472222  0.416667  0.111111     24.000000
 -0.444444  0.416667  0.111111     48.000000
 -0.416667  0.416667  0.111111     48.000000
 -0.388889  0.416667  0.111111     48.000000
 -0.361111  0.416667  0.111111     48.000000
 -0.333333  0.416667  0.111111     48.000000
 -0.305556  0.416667  0.111111     24.000000
 -0.444444  0.444444  0.111111     24.000000
 -0.416667  0.444444  0.111111     48.000000
 -0.388889  0.444444  0.111111     48.000000
 -0.361111  0.444444  0.111111     48.000000
 -0.333333  0.444444  0.111111     24.000000
 -0.416667  0.472222  0.111111     24.000000
 -0.388889  0.472222  0.111111     48.000000
 -0.361111  0.472222  0.111111     24.000000
 -0.388889  0.500000  0.111111     12.000000
  0.416667  0.277778  0.138889     24.000000
  0.444444  0.277778  0.138889     48.000000
  0.472222  0.277778  0.138889     48.000000
  0.500000  0.277778  0.138889     48.000000
 -0.472222  0.277778  0.138889     48.000000
 -0.444444  0.277778  0.138889     48.000000
 -0.416667  0.277778  0.138889     48.000000
 -0.388889  0.277778  0.138889     48.000000
 -0.361111  0.277778  0.138889     24.000000
  0.444444  0.305556  0.138889     24.000000
  0.472222  0.305556  0.138889     48.000000
  0.500000  0.305556  0.138889     48.000000
 -0.472222  0.305556  0.138889     48.000000
 -0.444444  0.305556  0.138889     48.000000
 -0.416667  0.305556  0.138889     48.000000
 -0.388889  0.305556  0.138889     48.000000
 -0.361111  0.305556  0.138889     48.000000
 -0.333333  0.305556  0.138889     48.000000
 -0.305556  0.305556  0.138889     48.000000
 -0.277778  0.305556  0.138889     48.000000
 -0.250000  0.305556  0.138889     48.000000
 -0.222222  0.305556  0.138889     48.000000
 -0.194444  0.305556  0.138889     48.000000
 -0.166667  0.305556  0.138889     24.000000
  0.472222  0.333333  0.138889     24.000000
  0.500000  0.333333  0.138889     48.000000
 -0.472222  0.333333  0.138889     48.000000
 -0.444444  0.333333  0.138889     48.000000
 -0.416667  0.333333  0.138889     48.000000
 -0.388889  0.333333  0.138889     48.000000
 -0.361111  0.333333  0.138889     48.000000
 -0.333333  0.333333  0.138889     48.000000
 -0.305556  0.333333  0.138889     48.000000
 -0.277778  0.333333  0.138889     48.000000
 -0.250000  0.333333  0.138889     48.000000
 -0.222222  0.333333  0.138889     48.000000
 -0.194444  0.333333  0.138889     24.000000
  0.500000  0.361111  0.138889     24.000000
 -0.472222  0.361111  0.138889     48.000000
 -0.444444  0.361111  0.138889     48.000000
 -0.416667  0.361111  0.138889     48.000000
 -0.388889  0.361111  0.138889     48.000000
 -0.361111  0.361111  0.138889     48.000000
 -0.333333  0.361111  0.138889     48.000000
 -0.305556  0.361111  0.138889     48.000000
 -0.277778  0.361111  0.138889     48.000000
 -0.250000  0.361111  0.138889     48.000000
 -0.222222  0.361111  0.138889     24.000000
 -0.472222  0.388889  0.138889     24.000000
 -0.444444  0.388889  0.138889     48.000000
 -0.416667  0.388889  0.138889     48.000000
 -0.388889  0.388889  0.138889     48.000000
 -0.361111  0.388889  0.138889     48.000000
 -0.333333  0.388889  0.138889     48.000000
 -0.305556  0.388889  0.138889     48.000000
 -0.277778  0.388889  0.138889     48.000000
 -0.250000  0.388889  0.138889     24.000000
 -0.444444  0.416667  0.138889     24.000000
 -0.416667  0.416667  0.138889     48.000000
 -0.388889  0.416667  0.138889     48.000000
 -0.361111  0.416667  0.138889     48.000000
 -0.333333  0.416667  0.138889     48.000000
 -0.305556  0.416667  0.138889     48.000000
 -0.277778  0.416667  0.138889     24.000000
 -0.416667  0.444444  0.138889     24.000000
 -0.388889  0.444444  0.138889     48.000000
 -0.361111  0.444444  0.138889     48.000000
 -0.333333  0.444444  0.138889     48.000000
 -0.305556  0.444444  0.138889     24.000000
 -0.388889  0.472222  0.138889     24.000000
 -0.361111  0.472222  0.138889     48.000000
 -0.333333  0.472222  0.138889     24.000000
 -0.361111  0.500000  0.138889     12.000000
  0.500000  0.333333  0.166667     24.000000
 -0.472222  0.333333  0.166667     48.000000
 -0.444444  0.333333  0.166667     48.000000
 -0.416667  0.333333  0.166667     48.000000
 -0.388889  0.333333  0.166667     48.000000
 -0.361111  0.333333  0.166667     48.000000
 -0.333333  0.333333  0.166667     24.000000
 -0.472222  0.361111  0.166667     24.000000
 -0.444444  0.361111  0.166667     48.000000
 -0.416667  0.361111  0.166667     48.000000
 -0.388889  0.361111  0.166667     48.000000
 -0.361111  0.361111  0.166667     48.000000
 -0.333333  0.361111  0.166667     48.000000
 -0.305556  0.361111  0.166667     48.000000
 -0.277778  0.361111  0.166667     48.000000
 -0.250000  0.361111  0.166667     48.000000
 -0.222222  0.361111  0.166667     48.000000
 -0.194444  0.361111  0.166667     24.000000
 -0.444444  0.388889  0.166667     24.000000
 -0.416667  0.388889  0.166667     48.000000
 -0.388889  0.388889  0.166667     48.000000
 -0.361111  0.388889  0.166667     48.000000
 -0.333333  0.388889  0.166667     48.000000
 -0.305556  0.388889  0.166667     48.000000
 -0.277778  0.388889  0.166667     48.000000
 -0.250000  0.388889  0.166667     48.000000
 -0.222222  0.388889  0.166667     24.000000
 -0.416667  0.416667  0.166667     24.000000
 -0.388889  0.416667  0.166667     48.000000
 -0.361111  0.416667  0.166667     48.000000
 -0.333333  0.416667  0.166667     48.000000
 -0.305556  0.416667  0.166667     48.000000
 -0.277778  0.416667  0.166667     48.000000
 -0.250000  0.416667  0.166667     24.000000
 -0.388889  0.444444  0.166667     24.000000
 -0.361111  0.444444  0.166667     48.000000
 -0.333333  0.444444  0.166667     48.000000
 -0.305556  0.444444  0.166667     48.000000
 -0.277778  0.444444  0.166667     24.000000
 -0.361111  0.472222  0.166667     24.000000
 -0.333333  0.472222  0.166667     48.000000
 -0.305556  0.472222  0.166667     24.000000
 -0.333333  0.500000  0.166667     12.000000
 -0.416667  0.388889  0.194444     24.000000
 -0.388889  0.388889  0.194444     48.000000
 -0.361111  0.388889  0.194444     48.000000
 -0.333333  0.388889  0.194444     48.000000
 -0.305556  0.388889  0.194444     24.000000
 -0.388889  0.416667  0.194444     24.000000
 -0.361111  0.416667  0.194444     48.000000
 -0.333333  0.416667  0.194444     48.000000
 -0.305556  0.416667  0.194444     48.000000
 -0.277778  0.416667  0.194444     48.000000
 -0.250000  0.416667  0.194444     48.000000
 -0.222222  0.416667  0.194444     24.000000
 -0.361111  0.444444  0.194444     24.000000
 -0.333333  0.444444  0.194444     48.000000
 -0.305556  0.444444  0.194444     48.000000
 -0.277778  0.444444  0.194444     48.000000
 -0.250000  0.444444  0.194444     24.000000
 -0.333333  0.472222  0.194444     24.000000
 -0.305556  0.472222  0.194444     48.000000
 -0.277778  0.472222  0.194444     24.000000
 -0.305556  0.500000  0.194444     12.000000
 -0.333333  0.444444  0.222222     24.000000
 -0.305556  0.444444  0.222222     48.000000
 -0.277778  0.444444  0.222222     24.000000
 -0.305556  0.472222  0.222222     24.000000
 -0.277778  0.472222  0.222222     48.000000
 -0.250000  0.472222  0.222222     24.000000
 -0.277778  0.500000  0.222222     12.000000
 -0.250000  0.500000  0.250000      6.000000
 
 Following cartesian coordinates:
            Coordinates               Weight
  0.000000  0.000000  0.000000      1.000000
 -0.027778  0.027778  0.027778      8.000000
 -0.055556  0.055556  0.055556      8.000000
 -0.083333  0.083333  0.083333      8.000000
 -0.111111  0.111111  0.111111      8.000000
 -0.138889  0.138889  0.138889      8.000000
 -0.166667  0.166667  0.166667      8.000000
 -0.194444  0.194444  0.194444      8.000000
 -0.222222  0.222222  0.222222      8.000000
 -0.250000  0.250000  0.250000      8.000000
 -0.277778  0.277778  0.277778      8.000000
 -0.305556  0.305556  0.305556      8.000000
 -0.333333  0.333333  0.333333      8.000000
 -0.361111  0.361111  0.361111      8.000000
 -0.388889  0.388889  0.388889      8.000000
 -0.416667  0.416667  0.416667      8.000000
 -0.444444  0.444444  0.444444      8.000000
 -0.472222  0.472222  0.472222      8.000000
 -0.500000  0.500000  0.500000      4.000000
  0.000000  0.000000  0.055556      6.000000
 -0.027778  0.027778  0.083333     24.000000
 -0.055556  0.055556  0.111111     24.000000
 -0.083333  0.083333  0.138889     24.000000
 -0.111111  0.111111  0.166667     24.000000
 -0.138889  0.138889  0.194444     24.000000
 -0.166667  0.166667  0.222222     24.000000
 -0.194444  0.194444  0.250000     24.000000
 -0.222222  0.222222  0.277778     24.000000
 -0.250000  0.250000  0.305556     24.000000
 -0.277778  0.277778  0.333333     24.000000
 -0.305556  0.305556  0.361111     24.000000
 -0.333333  0.333333  0.388889     24.000000
 -0.361111  0.361111  0.416667     24.000000
 -0.388889  0.388889  0.444444     24.000000
 -0.416667  0.416667  0.472222     24.000000
 -0.444444  0.444444  0.500000     24.000000
 -0.472222  0.472222  0.527778     24.000000
  0.500000 -0.500000 -0.444444     24.000000
  0.472222 -0.472222 -0.416667     24.000000
  0.444444 -0.444444 -0.388889     24.000000
  0.416667 -0.416667 -0.361111     24.000000
  0.388889 -0.388889 -0.333333     24.000000
  0.361111 -0.361111 -0.305556     24.000000
  0.333333 -0.333333 -0.277778     24.000000
  0.305556 -0.305556 -0.250000     24.000000
  0.277778 -0.277778 -0.222222     24.000000
  0.250000 -0.250000 -0.194444     24.000000
  0.222222 -0.222222 -0.166667     24.000000
  0.194444 -0.194444 -0.138889     24.000000
  0.166667 -0.166667 -0.111111     24.000000
  0.138889 -0.138889 -0.083333     24.000000
  0.111111 -0.111111 -0.055556     24.000000
  0.083333 -0.083333 -0.027778     24.000000
  0.055556 -0.055556  0.000000     12.000000
  0.000000  0.000000  0.111111      6.000000
 -0.027778  0.027778  0.138889     24.000000
 -0.055556  0.055556  0.166667     24.000000
 -0.083333  0.083333  0.194444     24.000000
 -0.111111  0.111111  0.222222     24.000000
 -0.138889  0.138889  0.250000     24.000000
 -0.166667  0.166667  0.277778     24.000000
 -0.194444  0.194444  0.305556     24.000000
 -0.222222  0.222222  0.333333     24.000000
 -0.250000  0.250000  0.361111     24.000000
 -0.277778  0.277778  0.388889     24.000000
 -0.305556  0.305556  0.416667     24.000000
 -0.333333  0.333333  0.444444     24.000000
 -0.361111  0.361111  0.472222     24.000000
 -0.388889  0.388889  0.500000     24.000000
 -0.416667  0.416667  0.527778     24.000000
 -0.444444  0.444444  0.555556     24.000000
  0.527778 -0.527778 -0.416667     24.000000
  0.500000 -0.500000 -0.388889     24.000000
  0.472222 -0.472222 -0.361111     24.000000
  0.444444 -0.444444 -0.333333     24.000000
  0.416667 -0.416667 -0.305556     24.000000
  0.388889 -0.388889 -0.277778     24.000000
  0.361111 -0.361111 -0.250000     24.000000
  0.333333 -0.333333 -0.222222     24.000000
  0.305556 -0.305556 -0.194444     24.000000
  0.277778 -0.277778 -0.166667     24.000000
  0.250000 -0.250000 -0.138889     24.000000
  0.222222 -0.222222 -0.111111     24.000000
  0.194444 -0.194444 -0.083333     24.000000
  0.166667 -0.166667 -0.055556     24.000000
  0.138889 -0.138889 -0.027778     24.000000
  0.111111 -0.111111  0.000000     12.000000
  0.000000  0.000000  0.166667      6.000000
 -0.027778  0.027778  0.194444     24.000000
 -0.055556  0.055556  0.222222     24.000000
 -0.083333  0.083333  0.250000     24.000000
 -0.111111  0.111111  0.277778     24.000000
 -0.138889  0.138889  0.305556     24.000000
 -0.166667  0.166667  0.333333     24.000000
 -0.194444  0.194444  0.361111     24.000000
 -0.222222  0.222222  0.388889     24.000000
 -0.250000  0.250000  0.416667     24.000000
 -0.277778  0.277778  0.444444     24.000000
 -0.305556  0.305556  0.472222     24.000000
 -0.333333  0.333333  0.500000     24.000000
 -0.361111  0.361111  0.527778     24.000000
 -0.388889  0.388889  0.555556     24.000000
 -0.416667  0.416667  0.583333     24.000000
  0.555556 -0.555556 -0.388889     24.000000
  0.527778 -0.527778 -0.361111     24.000000
  0.500000 -0.500000 -0.333333     24.000000
  0.472222 -0.472222 -0.305556     24.000000
  0.444444 -0.444444 -0.277778     24.000000
  0.416667 -0.416667 -0.250000     24.000000
  0.388889 -0.388889 -0.222222     24.000000
  0.361111 -0.361111 -0.194444     24.000000
  0.333333 -0.333333 -0.166667     24.000000
  0.305556 -0.305556 -0.138889     24.000000
  0.277778 -0.277778 -0.111111     24.000000
  0.250000 -0.250000 -0.083333     24.000000
  0.222222 -0.222222 -0.055556     24.000000
  0.194444 -0.194444 -0.027778     24.000000
  0.166667 -0.166667  0.000000     12.000000
  0.000000  0.000000  0.222222      6.000000
 -0.027778  0.027778  0.250000     24.000000
 -0.055556  0.055556  0.277778     24.000000
 -0.083333  0.083333  0.305556     24.000000
 -0.111111  0.111111  0.333333     24.000000
 -0.138889  0.138889  0.361111     24.000000
 -0.166667  0.166667  0.388889     24.000000
 -0.194444  0.194444  0.416667     24.000000
 -0.222222  0.222222  0.444444     24.000000
 -0.250000  0.250000  0.472222     24.000000
 -0.277778  0.277778  0.500000     24.000000
 -0.305556  0.305556  0.527778     24.000000
 -0.333333  0.333333  0.555556     24.000000
 -0.361111  0.361111  0.583333     24.000000
 -0.388889  0.388889  0.611111     24.000000
  0.583333 -0.583333 -0.361111     24.000000
  0.555556 -0.555556 -0.333333     24.000000
  0.527778 -0.527778 -0.305556     24.000000
  0.500000 -0.500000 -0.277778     24.000000
  0.472222 -0.472222 -0.250000     24.000000
  0.444444 -0.444444 -0.222222     24.000000
  0.416667 -0.416667 -0.194444     24.000000
  0.388889 -0.388889 -0.166667     24.000000
  0.361111 -0.361111 -0.138889     24.000000
  0.333333 -0.333333 -0.111111     24.000000
  0.305556 -0.305556 -0.083333     24.000000
  0.277778 -0.277778 -0.055556     24.000000
  0.250000 -0.250000 -0.027778     24.000000
  0.222222 -0.222222  0.000000     12.000000
  0.000000  0.000000  0.277778      6.000000
 -0.027778  0.027778  0.305556     24.000000
 -0.055556  0.055556  0.333333     24.000000
 -0.083333  0.083333  0.361111     24.000000
 -0.111111  0.111111  0.388889     24.000000
 -0.138889  0.138889  0.416667     24.000000
 -0.166667  0.166667  0.444444     24.000000
 -0.194444  0.194444  0.472222     24.000000
 -0.222222  0.222222  0.500000     24.000000
 -0.250000  0.250000  0.527778     24.000000
 -0.277778  0.277778  0.555556     24.000000
 -0.305556  0.305556  0.583333     24.000000
 -0.333333  0.333333  0.611111     24.000000
 -0.361111  0.361111  0.638889     24.000000
  0.611111 -0.611111 -0.333333     24.000000
  0.583333 -0.583333 -0.305556     24.000000
  0.555556 -0.555556 -0.277778     24.000000
  0.527778 -0.527778 -0.250000     24.000000
  0.500000 -0.500000 -0.222222     24.000000
  0.472222 -0.472222 -0.194444     24.000000
  0.444444 -0.444444 -0.166667     24.000000
  0.416667 -0.416667 -0.138889     24.000000
  0.388889 -0.388889 -0.111111     24.000000
  0.361111 -0.361111 -0.083333     24.000000
  0.333333 -0.333333 -0.055556     24.000000
  0.305556 -0.305556 -0.027778     24.000000
  0.277778 -0.277778  0.000000     12.000000
  0.000000  0.000000  0.333333      6.000000
 -0.027778  0.027778  0.361111     24.000000
 -0.055556  0.055556  0.388889     24.000000
 -0.083333  0.083333  0.416667     24.000000
 -0.111111  0.111111  0.444444     24.000000
 -0.138889  0.138889  0.472222     24.000000
 -0.166667  0.166667  0.500000     24.000000
 -0.194444  0.194444  0.527778     24.000000
 -0.222222  0.222222  0.555556     24.000000
 -0.250000  0.250000  0.583333     24.000000
 -0.277778  0.277778  0.611111     24.000000
 -0.305556  0.305556  0.638889     24.000000
 -0.333333  0.333333  0.666667     24.000000
  0.638889 -0.638889 -0.305556     24.000000
  0.611111 -0.611111 -0.277778     24.000000
  0.583333 -0.583333 -0.250000     24.000000
  0.555556 -0.555556 -0.222222     24.000000
  0.527778 -0.527778 -0.194444     24.000000
  0.500000 -0.500000 -0.166667     24.000000
  0.472222 -0.472222 -0.138889     24.000000
  0.444444 -0.444444 -0.111111     24.000000
  0.416667 -0.416667 -0.083333     24.000000
  0.388889 -0.388889 -0.055556     24.000000
  0.361111 -0.361111 -0.027778     24.000000
  0.333333 -0.333333  0.000000     12.000000
  0.000000  0.000000  0.388889      6.000000
 -0.027778  0.027778  0.416667     24.000000
 -0.055556  0.055556  0.444444     24.000000
 -0.083333  0.083333  0.472222     24.000000
 -0.111111  0.111111  0.500000     24.000000
 -0.138889  0.138889  0.527778     24.000000
 -0.166667  0.166667  0.555556     24.000000
 -0.194444  0.194444  0.583333     24.000000
 -0.222222  0.222222  0.611111     24.000000
 -0.250000  0.250000  0.638889     24.000000
 -0.277778  0.277778  0.666667     24.000000
 -0.305556  0.305556  0.694444     24.000000
  0.666667 -0.666667 -0.277778     24.000000
  0.638889 -0.638889 -0.250000     24.000000
  0.611111 -0.611111 -0.222222     24.000000
  0.583333 -0.583333 -0.194444     24.000000
  0.555556 -0.555556 -0.166667     24.000000
  0.527778 -0.527778 -0.138889     24.000000
  0.500000 -0.500000 -0.111111     24.000000
  0.472222 -0.472222 -0.083333     24.000000
  0.444444 -0.444444 -0.055556     24.000000
  0.416667 -0.416667 -0.027778     24.000000
  0.388889 -0.388889  0.000000     12.000000
  0.000000  0.000000  0.444444      6.000000
 -0.027778  0.027778  0.472222     24.000000
 -0.055556  0.055556  0.500000     24.000000
 -0.083333  0.083333  0.527778     24.000000
[...]
      8      19.2379      0.00000

 k-point  1207 :      -0.2778    0.4444    0.1667
  band No.  band energies     occupation 
      1      -5.4764      2.00000
      2      -4.0645      2.00000
      3      -0.6287      2.00000
      4       1.0078      2.00000
      5      15.3027      0.00000
      6      17.9877      0.00000
      7      18.1312      0.00000
      8      18.7825      0.00000

 k-point  1208 :      -0.3611    0.4722    0.1667
  band No.  band energies     occupation 
      1      -5.4977      2.00000
      2      -4.1890      2.00000
      3       0.2281      2.00000
      4       0.5612      2.00000
      5      14.5690      0.00000
      6      15.0065      0.00000
      7      19.5218      0.00000
      8      20.4749      0.00000

 k-point  1209 :      -0.3333    0.4722    0.1667
  band No.  band energies     occupation 
      1      -5.1335      2.00000
      2      -4.4682      2.00000
      3       0.0038      2.00000
      4       0.5174      2.00000
      5      14.8670      0.00000
      6      15.5697      0.00000
      7      19.3908      0.00000
      8      19.9333      0.00000

 k-point  1210 :      -0.3056    0.4722    0.1667
  band No.  band energies     occupation 
      1      -5.0445      2.00000
      2      -4.4984      2.00000
      3      -0.2798      2.00000
      4       0.6444      2.00000
      5      15.0061      0.00000
      6      16.3620      0.00000
      7      19.1336      0.00000
      8      19.4203      0.00000

 k-point  1211 :      -0.3333    0.5000    0.1667
  band No.  band energies     occupation 
      1      -4.8368      2.00000
      2      -4.8368      2.00000
      3       0.3516      2.00000
      4       0.3516      2.00000
      5      14.7643      0.00000
      6      14.7643      0.00000
      7      20.0439      0.00000
      8      20.0439      0.00000

 k-point  1212 :      -0.4167    0.3889    0.1944
  band No.  band energies     occupation 
      1      -7.2035      2.00000
      2      -2.6564      2.00000
      3      -0.0559      2.00000
      4       1.7971      2.00000
      5      15.1453      0.00000
      6      16.8035      0.00000
      7      16.8965      0.00000
      8      20.5157      0.00000

 k-point  1213 :      -0.3889    0.3889    0.1944
  band No.  band energies     occupation 
      1      -6.7793      2.00000
      2      -3.0269      2.00000
      3      -0.2384      2.00000
      4       1.5728      2.00000
      5      15.5724      0.00000
      6      16.7191      0.00000
      7      17.1372      0.00000
      8      20.3606      0.00000

 k-point  1214 :      -0.3611    0.3889    0.1944
  band No.  band energies     occupation 
      1      -6.3824      2.00000
      2      -3.3995      2.00000
      3      -0.3483      2.00000
      4       1.3992      2.00000
      5      15.8619      0.00000
      6      16.5711      0.00000
      7      17.6314      0.00000
      8      20.0075      0.00000

 k-point  1215 :      -0.3333    0.3889    0.1944
  band No.  band energies     occupation 
      1      -6.0696      2.00000
      2      -3.7042      2.00000
      3      -0.4044      2.00000
      4       1.2888      2.00000
      5      16.0447      0.00000
      6      16.4396      0.00000
      7      18.2435      0.00000
      8      19.4973      0.00000

 k-point  1216 :      -0.3056    0.3889    0.1944
  band No.  band energies     occupation 
      1      -5.9423      2.00000
      2      -3.8299      2.00000
      3      -0.4213      2.00000
      4       1.2509      2.00000
      5      16.1269      0.00000
      6      16.3688      0.00000
      7      18.8826      0.00000
      8      18.8944      0.00000

 k-point  1217 :      -0.3889    0.4167    0.1944
  band No.  band energies     occupation 
      1      -6.5963      2.00000
      2      -3.1315      2.00000
      3      -0.1241      2.00000
      4       1.2564      2.00000
      5      15.2173      0.00000
      6      16.4616      0.00000
      7      17.4727      0.00000
      8      20.5019      0.00000

 k-point  1218 :      -0.3611    0.4167    0.1944
  band No.  band energies     occupation 
      1      -6.1890      2.00000
      2      -3.4660      2.00000
      3      -0.2750      2.00000
      4       1.0543      2.00000
      5      15.6352      0.00000
      6      16.8331      0.00000
      7      17.3288      0.00000
      8      20.1283      0.00000

 k-point  1219 :      -0.3333    0.4167    0.1944
  band No.  band energies     occupation 
      1      -5.8396      2.00000
      2      -3.7693      2.00000
      3      -0.3871      2.00000
      4       0.9346      2.00000
      5      15.8848      0.00000
      6      17.1508      0.00000
      7      17.4586      0.00000
      8      19.5969      0.00000

 k-point  1220 :      -0.3056    0.4167    0.1944
  band No.  band energies     occupation 
      1      -5.6431      2.00000
      2      -3.9433      2.00000
      3      -0.4674      2.00000
      4       0.9073      2.00000
      5      16.0564      0.00000
      6      17.0133      0.00000
      7      18.1422      0.00000
      8      18.9697      0.00000

 k-point  1221 :      -0.2778    0.4167    0.1944
  band No.  band energies     occupation 
      1      -5.7073      2.00000
      2      -3.8805      2.00000
      3      -0.5106      2.00000
      4       0.9701      2.00000
      5      16.2099      0.00000
      6      16.8411      0.00000
      7      18.3151      0.00000
      8      18.8475      0.00000

 k-point  1222 :      -0.2500    0.4167    0.1944
  band No.  band energies     occupation 
      1      -5.9878      2.00000
      2      -3.6308      2.00000
      3      -0.5001      2.00000
      4       1.1116      2.00000
      5      16.3640      0.00000
      6      16.5907      0.00000
      7      17.7292      0.00000
      8      19.4972      0.00000

 k-point  1223 :      -0.2222    0.4167    0.1944
  band No.  band energies     occupation 
      1      -6.3670      2.00000
      2      -3.3214      2.00000
      3      -0.4152      2.00000
      4       1.3174      2.00000
      5      16.1530      0.00000
      6      16.5418      0.00000
      7      17.3349      0.00000
      8      20.0247      0.00000

 k-point  1224 :      -0.3611    0.4444    0.1944
  band No.  band energies     occupation 
      1      -5.9792      2.00000
      2      -3.6387      2.00000
      3      -0.1182      2.00000
      4       0.7924      2.00000
      5      15.3246      0.00000
      6      16.1522      0.00000
      7      18.0761      0.00000
      8      20.2436      0.00000

 k-point  1225 :      -0.3333    0.4444    0.1944
  band No.  band energies     occupation 
      1      -5.6035      2.00000
      2      -3.9352      2.00000
      3      -0.2411      2.00000
      4       0.6294      2.00000
      5      15.7095      0.00000
      6      16.6161      0.00000
      7      17.9328      0.00000
      8      19.7012      0.00000

 k-point  1226 :      -0.3056    0.4444    0.1944
  band No.  band energies     occupation 
      1      -5.3469      2.00000
      2      -4.1434      2.00000
      3      -0.3764      2.00000
      4       0.6035      2.00000
      5      15.9041      0.00000
      6      17.3173      0.00000
      7      17.7844      0.00000
      8      19.0620      0.00000

 k-point  1227 :      -0.2778    0.4444    0.1944
  band No.  band energies     occupation 
      1      -5.3615      2.00000
      2      -4.1188      2.00000
      3      -0.4914      2.00000
      4       0.6947      2.00000
      5      16.0575      0.00000
      6      17.5852      0.00000
      7      18.0883      0.00000
      8      18.4126      0.00000

 k-point  1228 :      -0.2500    0.4444    0.1944
  band No.  band energies     occupation 
      1      -5.6246      2.00000
      2      -3.8948      2.00000
      3      -0.5429      2.00000
      4       0.8715      2.00000
      5      16.2126      0.00000
      6      17.2064      0.00000
      7      17.9374      0.00000
      8      18.8325      0.00000

 k-point  1229 :      -0.3333    0.4722    0.1944
  band No.  band energies     occupation 
      1      -5.3631      2.00000
      2      -4.1824      2.00000
      3      -0.0307      2.00000
      4       0.4205      2.00000
      5      15.4700      0.00000
      6      15.8831      0.00000
      7      18.6847      0.00000
      8      19.8112      0.00000

 k-point  1230 :      -0.3056    0.4722    0.1944
  band No.  band energies     occupation 
      1      -5.0529      2.00000
      2      -4.4226      2.00000
      3      -0.1620      2.00000
      4       0.3480      2.00000
      5      15.7683      0.00000
      6      16.4823      0.00000
      7      18.5443      0.00000
      8      19.1642      0.00000

 k-point  1231 :      -0.2778    0.4722    0.1944
  band No.  band energies     occupation 
      1      -5.0731      2.00000
      2      -4.3749      2.00000
      3      -0.3597      2.00000
      4       0.4767      2.00000
      5      15.9120      0.00000
      6      17.2795      0.00000
      7      18.2664      0.00000
      8      18.5967      0.00000

 k-point  1232 :      -0.3056    0.5000    0.1944
  band No.  band energies     occupation 
      1      -4.7601      2.00000
      2      -4.7601      2.00000
      3       0.1468      2.00000
      4       0.1468      2.00000
      5      15.6557      0.00000
      6      15.6557      0.00000
      7      19.2745      0.00000
      8      19.2745      0.00000

 k-point  1233 :      -0.3333    0.4444    0.2222
  band No.  band energies     occupation 
      1      -5.7966      2.00000
      2      -3.7497      2.00000
      3      -0.3672      2.00000
      4       0.7958      2.00000
      5      16.2623      0.00000
      6      16.9686      0.00000
      7      17.2279      0.00000
      8      19.5944      0.00000

 k-point  1234 :      -0.3056    0.4444    0.2222
  band No.  band energies     occupation 
      1      -5.4671      2.00000
      2      -4.0147      2.00000
      3      -0.4053      2.00000
      4       0.6209      2.00000
      5      16.6325      0.00000
      6      16.9951      0.00000
      7      17.5445      0.00000
      8      18.9350      0.00000

 k-point  1235 :      -0.2778    0.4444    0.2222
  band No.  band energies     occupation 
      1      -5.3197      2.00000
      2      -4.1409      2.00000
      3      -0.4138      2.00000
      4       0.5580      2.00000
      5      16.7462      0.00000
      6      16.9352      0.00000
      7      18.2188      0.00000
      8      18.2210      0.00000

 k-point  1236 :      -0.3056    0.4722    0.2222
  band No.  band energies     occupation 
      1      -5.2394      2.00000
      2      -4.2101      2.00000
      3      -0.2268      2.00000
      4       0.3561      2.00000
      5      16.4035      0.00000
      6      16.7827      0.00000
      7      17.7943      0.00000
      8      19.0383      0.00000

 k-point  1237 :      -0.2778    0.4722    0.2222
  band No.  band energies     occupation 
      1      -5.0071      2.00000
      2      -4.3989      2.00000
      3      -0.2480      2.00000
      4       0.2563      2.00000
      5      16.6935      0.00000
      6      17.3857      0.00000
      7      17.6618      0.00000
      8      18.3144      0.00000

 k-point  1238 :      -0.2500    0.4722    0.2222
  band No.  band energies     occupation 
      1      -5.1393      2.00000
      2      -4.2755      2.00000
      3      -0.3408      2.00000
      4       0.3761      2.00000
      5      16.8338      0.00000
      6      17.3424      0.00000
      7      17.7239      0.00000
      8      18.1861      0.00000

 k-point  1239 :      -0.2778    0.5000    0.2222
  band No.  band energies     occupation 
      1      -4.7075      2.00000
      2      -4.7075      2.00000
      3       0.0134      2.00000
      4       0.0134      2.00000
      5      16.5777      0.00000
      6      16.5777      0.00000
      7      18.4233      0.00000
      8      18.4233      0.00000

 k-point  1240 :      -0.2500    0.5000    0.2500
  band No.  band energies     occupation 
      1      -4.6887      2.00000
      2      -4.6887      2.00000
      3      -0.0329      2.00000
      4      -0.0329      2.00000
      5      17.4193      0.00000
      6      17.4193      0.00000
      7      17.6047      0.00000
      8      17.6047      0.00000


--------------------------------------------------------------------------------------------------------


 soft charge-density along one line, spin component           1
         0         1         2         3         4         5         6         7         8         9
 total charge-density along one line
 
 pseudopotential strength for first ion, spin component:           1
  9.758  12.959   0.000  -0.000  -0.000  -0.000   0.000   0.000
 12.959  17.209   0.000  -0.000  -0.000  -0.000   0.000   0.000
  0.000   0.000  -3.778   0.000   0.000   7.352  -0.000  -0.000
 -0.000  -0.000   0.000  -3.778   0.000  -0.000   7.352  -0.000
 -0.000  -0.000   0.000   0.000  -3.778  -0.000  -0.000   7.352
 -0.000  -0.000   7.352  -0.000  -0.000 -16.548   0.000   0.000
  0.000   0.000  -0.000   7.352  -0.000   0.000 -16.548   0.000
  0.000   0.000  -0.000  -0.000   7.352   0.000   0.000 -16.548
 total augmentation occupancy for first ion, spin component:           1
  6.311  -2.614   0.000   0.000   0.000   0.000   0.000   0.000
 -2.614   1.167  -0.000  -0.000   0.000  -0.000  -0.000   0.000
  0.000   0.000   1.392   0.000  -0.000   0.116  -0.000   0.000
  0.000   0.000   0.000   1.392  -0.000   0.000   0.116   0.000
  0.000   0.000  -0.000  -0.000   1.392   0.000   0.000   0.116
  0.000   0.000   0.116  -0.000   0.000   0.011  -0.000   0.000
  0.000   0.000   0.000   0.116   0.000   0.000   0.011  -0.000
  0.000  -0.000  -0.000  -0.000   0.116   0.000  -0.000   0.011


------------------------ aborting loop because EDIFF is reached ----------------------------------------


 


 total charge     
 
# of ion       s       p       d       tot
------------------------------------------
    1        0.819   1.549   0.000   2.367
    2        0.819   1.549   0.000   2.367
--------------------------------------------------
tot          1.637   3.097   0.000   4.735
 
    CHARGE:  cpu time    0.0698: real time    0.0698
    FORLOC:  cpu time    0.0003: real time    0.0003
    FORNL :  cpu time    0.1170: real time    0.1171
    STRESS:  cpu time   12.4985: real time   12.4988
    FORCOR:  cpu time    0.0213: real time    0.0213
    FORHAR:  cpu time    0.0012: real time    0.0012
    MIXING:  cpu time    0.0013: real time    0.0013
    OFIELD:  cpu time    0.0000: real time    0.0000

  FORCE on cell =-STRESS in cart. coord.  units (eV):
  Direction    XX          YY          ZZ          XY          YZ          ZX
  --------------------------------------------------------------------------------------
  Alpha Z    23.89633    23.89633    23.89633
  Ewald    -108.78258  -108.78258  -108.78258    -0.00000    -0.00000    -0.00000
  Hartree     9.68760     9.68760     9.68760     0.00000     0.00000     0.00000
  E(xc)     -29.15043   -29.34604   -29.23898     0.15474    -0.03742     0.06550
  Local     -15.08376   -15.08376   -15.08376    -0.00000    -0.00000    -0.00000
  n-local    -3.89436    -3.56355    -3.69561    -0.77802     0.27422    -0.14063
  augment    -0.69282    -0.69282    -0.69282     0.00000     0.00000     0.00000
  Kinetic   121.51860   117.16080   117.37130     5.26801    -1.61733     1.84332
  Fock        0.00000     0.00000     0.00000     0.00000     0.00000     0.00000
  -------------------------------------------------------------------------------------
  Total      -5.25466    -5.25466    -5.25466     0.00000    -0.00000     0.00000
  in kB    -612.26072  -612.26072  -612.26072     0.00000    -0.00000     0.00000
  external pressure =     -612.26 kB  Pullay stress =        0.00 kB


 VOLUME and BASIS-vectors are now :
 -----------------------------------------------------------------------------
  energy-cutoff  :      800.00
  volume of cell :       13.75
      direct lattice vectors                 reciprocal lattice vectors
     0.000000000  1.901500000  1.901500000    -0.262950302  0.262950302  0.262950302
     1.901500000  0.000000000  1.901500000     0.262950302 -0.262950302  0.262950302
     1.901500000  1.901500000  0.000000000     0.262950302  0.262950302 -0.262950302

  length of vectors
     2.689127089  2.689127089  2.689127089     0.455443284  0.455443284  0.455443284


 FORCES acting on ions
    electron-ion (+dipol)            ewald-force                    non-local-force                 convergence-correction
 -----------------------------------------------------------------------------------------------
   -.243E-08 -.243E-08 -.213E-08   0.131E-13 0.141E-13 0.255E-13   -.625E-16 0.694E-16 0.659E-16   0.198E-09 0.198E-09 0.198E-09
   0.243E-08 0.243E-08 0.213E-08   -.134E-13 -.150E-13 -.240E-13   -.763E-16 -.625E-16 -.902E-16   -.198E-09 -.198E-09 -.198E-09
 -----------------------------------------------------------------------------------------------
   0.921E-13 -.226E-12 -.125E-12   -.304E-15 -.930E-15 0.144E-14   -.139E-15 0.694E-17 -.243E-16   -.288E-15 0.583E-15 0.297E-14
 
 
 POSITION                                       TOTAL-FORCE (eV/Angst)
 -----------------------------------------------------------------------------------
      3.32762      3.32762      3.32762        -0.000000     -0.000000     -0.000000
      0.47537      0.47537      0.47537         0.000000      0.000000      0.000000
 -----------------------------------------------------------------------------------
    total drift:                                0.000000     -0.000000     -0.000000


--------------------------------------------------------------------------------------------------------



  FREE ENERGIE OF THE ION-ELECTRON SYSTEM (eV)
  ---------------------------------------------------
  free  energy   TOTEN  =       -19.13111406 eV

  energy  without entropy=      -19.13111406  energy(sigma->0) =      -19.13111406
 


--------------------------------------------------------------------------------------------------------


    POTLOK:  cpu time    0.3796: real time    0.3796


--------------------------------------------------------------------------------------------------------


     LOOP+:  cpu time   87.6283: real time   87.7173
    4ORBIT:  cpu time    0.0000: real time    0.0000
 


 total charge     
 
# of ion       s       p       d       tot
------------------------------------------
    1        0.819   1.549   0.000   2.367
    2        0.819   1.549   0.000   2.367
--------------------------------------------------
tot          1.637   3.097   0.000   4.735
 
 BZINTS: Fermi energy:   10.998727;    8.000000 electrons
         Band energy:-0.102721E+02;  BLOECHL correction:    0.000000

 total amount of memory used by VASP MPI-rank0    44542. kBytes
=======================================================================

   base      :      30000. kBytes
   nonl-proj :       5875. kBytes
   fftplans  :       1447. kBytes
   grid      :        710. kBytes
   one-center:          3. kBytes
   wavefun   :       6507. kBytes
 
  
  
 General timing and accounting informations for this job:
 ========================================================
  
                  Total CPU time used (sec):       91.385
                            User time (sec):       91.091
                          System time (sec):        0.294
                         Elapsed time (sec):       91.799
  
                   Maximum memory used (kb):      109652.
                   Average memory used (kb):           0.
  
                          Minor page faults:        43870
                          Major page faults:            8
                 Voluntary context switches:         1447
