 vasp.6.1.2 22Jul20 (build Mar 11 2021 17:42:27) complex                        
  
 executed on             LinuxIFC date 2021.03.19  16:41:44
 running on   40 total cores
 distrk:  each k-point on   20 cores,    2 groups
 distr:  one band on NCORE=  10 cores,    2 groups


--------------------------------------------------------------------------------------------------------


 INCAR:
 POTCAR:    PAW_PBE C 08Apr2002                   
 POTCAR:    PAW_PBE C 08Apr2002                   
   VRHFIN =C: s2p2                                                                                  
   LEXCH  = PE                                                                                      
   EATOM  =   147.1560 eV,   10.8157 Ry                                                             
                                                                                                    
   TITEL  = PAW_PBE C 08Apr2002                                                                     
   LULTRA =        F    use ultrasoft PP ?                                                          
   IUNSCR =        1    unscreen: 0-lin 1-nonlin 2-no                                               
   RPACOR =    1.200    partial core radius                                                         
   POMASS =   12.011; ZVAL   =    4.000    mass and valenz                                          
   RCORE  =    1.500    outmost cutoff radius                                                       
   RWIGS  =    1.630; RWIGS  =    0.863    wigner-seitz radius (au A)                               
   ENMAX  =  400.000; ENMIN  =  300.000 eV                                                          
   ICORE  =        2    local potential                                                             
   LCOR   =        T    correct aug charges                                                         
   LPAW   =        T    paw PP                                                                      
   EAUG   =  644.873                                                                                
   DEXC   =    0.000                                                                                
   RMAX   =    1.529    core radius for proj-oper                                                   
   RAUG   =    1.300    factor for augmentation sphere                                              
   RDEP   =    1.501    radius for radial grids                                                     
   RDEPT  =    1.300    core radius for aug-charge                                                  
                                                                                                    
   Atomic configuration                                                                             
    4 entries                                                                                       
     n  l   j            E        occ.                                                              
     1  0  0.50      -273.3789   2.0000                                                             
     2  0  0.50       -13.7508   2.0000                                                             
     2  1  0.50        -5.2854   2.0000                                                             
     3  2  1.50        -5.4423   0.0000                                                             
   Description                                                                                      
     l       E           TYP  RCUT    TYP  RCUT                                                     
     0    -13.7508458     23  1.200                                                                 
     0     -8.2022199     23  1.200                                                                 
     1     -5.2854383     23  1.500                                                                 
     1     34.0145650     23  1.500                                                                 
     2     -5.4423304      7  1.500                                                                 
  local pseudopotential read in
  partial core-charges read in
  partial kinetic energy density read in
  atomic valenz-charges read in
  non local Contribution for L=           0  read in
    real space projection operators read in
  non local Contribution for L=           0  read in
    real space projection operators read in
  non local Contribution for L=           1  read in
    real space projection operators read in
  non local Contribution for L=           1  read in
    real space projection operators read in
    PAW grid and wavefunctions read in
 
   number of l-projection  operators is LMAX  =           4
   number of lm-projection operators is LMMAX =           8
 
  PAW_PBE C 08Apr2002                   :
 energy of atom  1       EATOM= -147.1560
 kinetic energy error for atom=    0.0016 (will be added to EATOM!!)
 
 
 POSCAR: carbon
  positions in direct lattice
  No initial velocities read in

 METAGGA = R2SCA    LMAXTAU =  6    LMIXTAU =  T

 exchange correlation table for  LEXCH =        8
   RHO(1)=    0.500       N(1)  =     2000
   RHO(2)=  100.500       N(2)  =     4000
 


--------------------------------------------------------------------------------------------------------


 ion  position               nearest neighbor table
   1  0.875  0.875  0.875-   2 1.56   2 1.56   2 1.56   2 1.56
   2  0.125  0.125  0.125-   1 1.56   1 1.56   1 1.56   1 1.56
 
  LATTYP: Found a face centered cubic cell.
 ALAT       =     3.5924995471
  
  Lattice vectors:
  
 A1 = (   0.0000000000,   1.7962497736,   1.7962497736)
 A2 = (   1.7962497736,   0.0000000000,   1.7962497736)
 A3 = (   1.7962497736,   1.7962497736,   0.0000000000)


Analysis of symmetry for initial positions (statically):
=====================================================================
 Subroutine PRICEL returns:
 Original cell was already a primitive cell.
 

 Routine SETGRP: Setting up the symmetry group for a 
 face centered cubic supercell.


 Subroutine GETGRP returns: Found 48 space group operations
 (whereof 12 operations were pure point group operations)
 out of a pool of 48 trial point group operations.


The static configuration has the point symmetry D_3d.
 The point group associated with its full space group is O_h .


Analysis of symmetry for dynamics (positions and initial velocities):
=====================================================================
 Subroutine PRICEL returns:
 Original cell was already a primitive cell.
 

 Routine SETGRP: Setting up the symmetry group for a 
 face centered cubic supercell.


 Subroutine GETGRP returns: Found 48 space group operations
 (whereof 12 operations were pure point group operations)
 out of a pool of 48 trial point group operations.


The dynamic configuration has the point symmetry D_3d.
 The point group associated with its full space group is O_h .


 Subroutine INISYM returns: Found 48 space group operations
 (whereof 12 operations are pure point group operations),
 and found     1 'primitive' translations


----------------------------------------------------------------------------------------

                                     Primitive cell                                     

  volume of cell :      11.5912

  direct lattice vectors                    reciprocal lattice vectors
     0.000000000  1.796249774  1.796249774    -0.278357725  0.278357725  0.278357725
     1.796249774  0.000000000  1.796249774     0.278357725 -0.278357725  0.278357725
     1.796249774  1.796249774  0.000000000     0.278357725  0.278357725 -0.278357725

  length of vectors
     2.540280791  2.540280791  2.540280791     0.482129722  0.482129722  0.482129722

  position of ions in fractional coordinates (direct lattice)
     0.875000000  0.875000000  0.875000000
     0.125000000  0.125000000  0.125000000

  ion indices of the primitive-cell ions
   primitive index   ion index
                 1           1
                 2           2

----------------------------------------------------------------------------------------

 
 

Automatic generation of k-mesh.
 generate k-points for:   38   38   38
Space group operators:
 irot       det(A)        alpha          n_x          n_y          n_z        tau_x        tau_y        tau_z
    1     1.000000     0.000000     1.000000     0.000000     0.000000     0.000000     0.000000     0.000000
    2    -1.000000     0.000000     1.000000     0.000000     0.000000     0.000000     0.000000     0.000000
    3     1.000000   120.000000    -0.577350    -0.577350    -0.577350     0.000000     0.000000     0.000000
    4    -1.000000   120.000000    -0.577350    -0.577350    -0.577350     0.000000     0.000000     0.000000
    5     1.000000   120.000000     0.577350     0.577350     0.577350     0.000000     0.000000     0.000000
    6    -1.000000   120.000000     0.577350     0.577350     0.577350     0.000000     0.000000     0.000000
    7     1.000000   180.000000     0.000000    -0.707107     0.707107     0.000000     0.000000     0.000000
    8    -1.000000   180.000000     0.000000    -0.707107     0.707107     0.000000     0.000000     0.000000
    9     1.000000   180.000000     0.707107    -0.707107     0.000000     0.000000     0.000000     0.000000
   10    -1.000000   180.000000     0.707107    -0.707107     0.000000     0.000000     0.000000     0.000000
   11     1.000000   180.000000     0.707107     0.000000    -0.707107     0.000000     0.000000     0.000000
   12    -1.000000   180.000000     0.707107     0.000000    -0.707107     0.000000     0.000000     0.000000
   13     1.000000    90.000000     0.000000     0.000000    -1.000000    -0.500000     0.000000     0.000000
   14    -1.000000    90.000000     0.000000     0.000000    -1.000000    -0.500000     0.000000     0.000000
   15     1.000000   180.000000     0.000000     0.707107     0.707107    -0.500000     0.000000     0.000000
   16    -1.000000   180.000000     0.000000     0.707107     0.707107    -0.500000     0.000000     0.000000
   17     1.000000    90.000000     0.000000     1.000000     0.000000    -0.500000     0.000000     0.000000
   18    -1.000000    90.000000     0.000000     1.000000     0.000000    -0.500000     0.000000     0.000000
   19     1.000000   180.000000     0.000000     0.000000     1.000000     0.000000     0.000000    -0.500000
   20    -1.000000   180.000000     0.000000     0.000000     1.000000     0.000000     0.000000    -0.500000
   21     1.000000   120.000000    -0.577350     0.577350     0.577350     0.000000     0.000000    -0.500000
   22    -1.000000   120.000000    -0.577350     0.577350     0.577350     0.000000     0.000000    -0.500000
   23     1.000000   120.000000    -0.577350     0.577350    -0.577350     0.000000     0.000000    -0.500000
   24    -1.000000   120.000000    -0.577350     0.577350    -0.577350     0.000000     0.000000    -0.500000
   25     1.000000    90.000000     0.000000     0.000000     1.000000     0.000000    -0.500000     0.000000
   26    -1.000000    90.000000     0.000000     0.000000     1.000000     0.000000    -0.500000     0.000000
   27     1.000000    90.000000    -1.000000     0.000000     0.000000     0.000000    -0.500000     0.000000
   28    -1.000000    90.000000    -1.000000     0.000000     0.000000     0.000000    -0.500000     0.000000
   29     1.000000   180.000000     0.707107     0.000000     0.707107     0.000000    -0.500000     0.000000
   30    -1.000000   180.000000     0.707107     0.000000     0.707107     0.000000    -0.500000     0.000000
   31     1.000000   120.000000     0.577350    -0.577350     0.577350    -0.500000     0.000000     0.000000
   32    -1.000000   120.000000     0.577350    -0.577350     0.577350    -0.500000     0.000000     0.000000
   33     1.000000   120.000000    -0.577350    -0.577350     0.577350    -0.500000     0.000000     0.000000
   34    -1.000000   120.000000    -0.577350    -0.577350     0.577350    -0.500000     0.000000     0.000000
   35     1.000000   180.000000     1.000000     0.000000     0.000000    -0.500000     0.000000     0.000000
   36    -1.000000   180.000000     1.000000     0.000000     0.000000    -0.500000     0.000000     0.000000
   37     1.000000    90.000000     0.000000    -1.000000     0.000000     0.000000     0.000000    -0.500000
   38    -1.000000    90.000000     0.000000    -1.000000     0.000000     0.000000     0.000000    -0.500000
   39     1.000000   180.000000     0.707107     0.707107     0.000000     0.000000     0.000000    -0.500000
   40    -1.000000   180.000000     0.707107     0.707107     0.000000     0.000000     0.000000    -0.500000
   41     1.000000    90.000000     1.000000     0.000000     0.000000     0.000000     0.000000    -0.500000
   42    -1.000000    90.000000     1.000000     0.000000     0.000000     0.000000     0.000000    -0.500000
   43     1.000000   120.000000     0.577350    -0.577350    -0.577350     0.000000    -0.500000     0.000000
   44    -1.000000   120.000000     0.577350    -0.577350    -0.577350     0.000000    -0.500000     0.000000
   45     1.000000   180.000000     0.000000     1.000000     0.000000     0.000000    -0.500000     0.000000
   46    -1.000000   180.000000     0.000000     1.000000     0.000000     0.000000    -0.500000     0.000000
   47     1.000000   120.000000     0.577350     0.577350    -0.577350     0.000000    -0.500000     0.000000
   48    -1.000000   120.000000     0.577350     0.577350    -0.577350     0.000000    -0.500000     0.000000
 TETIRR: Found   7211 inequivalent tetrahedra from   329232
 
 Subroutine IBZKPT returns following result:
 ===========================================
 
 Found   1440 irreducible k-points:
 
 Following reciprocal coordinates:
            Coordinates               Weight
  0.000000  0.000000  0.000000      1.000000
  0.026316  0.000000  0.000000      8.000000
  0.052632  0.000000  0.000000      8.000000
  0.078947  0.000000  0.000000      8.000000
  0.105263  0.000000  0.000000      8.000000
  0.131579  0.000000  0.000000      8.000000
  0.157895  0.000000  0.000000      8.000000
  0.184211  0.000000  0.000000      8.000000
  0.210526  0.000000  0.000000      8.000000
  0.236842  0.000000  0.000000      8.000000
  0.263158  0.000000  0.000000      8.000000
  0.289474  0.000000  0.000000      8.000000
  0.315789  0.000000  0.000000      8.000000
  0.342105  0.000000  0.000000      8.000000
  0.368421  0.000000  0.000000      8.000000
  0.394737  0.000000  0.000000      8.000000
  0.421053  0.000000  0.000000      8.000000
  0.447368  0.000000  0.000000      8.000000
  0.473684  0.000000  0.000000      8.000000
  0.500000  0.000000  0.000000      4.000000
  0.026316  0.026316  0.000000      6.000000
  0.052632  0.026316  0.000000     24.000000
  0.078947  0.026316  0.000000     24.000000
  0.105263  0.026316  0.000000     24.000000
  0.131579  0.026316  0.000000     24.000000
  0.157895  0.026316  0.000000     24.000000
  0.184211  0.026316  0.000000     24.000000
  0.210526  0.026316  0.000000     24.000000
  0.236842  0.026316  0.000000     24.000000
  0.263158  0.026316  0.000000     24.000000
  0.289474  0.026316  0.000000     24.000000
  0.315789  0.026316  0.000000     24.000000
  0.342105  0.026316  0.000000     24.000000
  0.368421  0.026316  0.000000     24.000000
  0.394737  0.026316  0.000000     24.000000
  0.421053  0.026316  0.000000     24.000000
  0.447368  0.026316  0.000000     24.000000
  0.473684  0.026316  0.000000     24.000000
  0.500000  0.026316  0.000000     24.000000
 -0.473684  0.026316  0.000000     24.000000
 -0.447368  0.026316  0.000000     24.000000
 -0.421053  0.026316  0.000000     24.000000
 -0.394737  0.026316  0.000000     24.000000
 -0.368421  0.026316  0.000000     24.000000
 -0.342105  0.026316  0.000000     24.000000
 -0.315789  0.026316  0.000000     24.000000
 -0.289474  0.026316  0.000000     24.000000
 -0.263158  0.026316  0.000000     24.000000
 -0.236842  0.026316  0.000000     24.000000
 -0.210526  0.026316  0.000000     24.000000
 -0.184211  0.026316  0.000000     24.000000
 -0.157895  0.026316  0.000000     24.000000
 -0.131579  0.026316  0.000000     24.000000
 -0.105263  0.026316  0.000000     24.000000
 -0.078947  0.026316  0.000000     24.000000
 -0.052632  0.026316  0.000000     24.000000
 -0.026316  0.026316  0.000000     12.000000
  0.052632  0.052632  0.000000      6.000000
  0.078947  0.052632  0.000000     24.000000
  0.105263  0.052632  0.000000     24.000000
  0.131579  0.052632  0.000000     24.000000
  0.157895  0.052632  0.000000     24.000000
  0.184211  0.052632  0.000000     24.000000
  0.210526  0.052632  0.000000     24.000000
  0.236842  0.052632  0.000000     24.000000
  0.263158  0.052632  0.000000     24.000000
  0.289474  0.052632  0.000000     24.000000
  0.315789  0.052632  0.000000     24.000000
  0.342105  0.052632  0.000000     24.000000
  0.368421  0.052632  0.000000     24.000000
  0.394737  0.052632  0.000000     24.000000
  0.421053  0.052632  0.000000     24.000000
  0.447368  0.052632  0.000000     24.000000
  0.473684  0.052632  0.000000     24.000000
  0.500000  0.052632  0.000000     24.000000
 -0.473684  0.052632  0.000000     24.000000
 -0.447368  0.052632  0.000000     24.000000
 -0.421053  0.052632  0.000000     24.000000
 -0.394737  0.052632  0.000000     24.000000
 -0.368421  0.052632  0.000000     24.000000
 -0.342105  0.052632  0.000000     24.000000
 -0.315789  0.052632  0.000000     24.000000
 -0.289474  0.052632  0.000000     24.000000
 -0.263158  0.052632  0.000000     24.000000
 -0.236842  0.052632  0.000000     24.000000
 -0.210526  0.052632  0.000000     24.000000
 -0.184211  0.052632  0.000000     24.000000
 -0.157895  0.052632  0.000000     24.000000
 -0.131579  0.052632  0.000000     24.000000
 -0.105263  0.052632  0.000000     24.000000
 -0.078947  0.052632  0.000000     24.000000
 -0.052632  0.052632  0.000000     12.000000
  0.078947  0.078947  0.000000      6.000000
  0.105263  0.078947  0.000000     24.000000
  0.131579  0.078947  0.000000     24.000000
  0.157895  0.078947  0.000000     24.000000
  0.184211  0.078947  0.000000     24.000000
  0.210526  0.078947  0.000000     24.000000
  0.236842  0.078947  0.000000     24.000000
  0.263158  0.078947  0.000000     24.000000
  0.289474  0.078947  0.000000     24.000000
  0.315789  0.078947  0.000000     24.000000
  0.342105  0.078947  0.000000     24.000000
  0.368421  0.078947  0.000000     24.000000
  0.394737  0.078947  0.000000     24.000000
  0.421053  0.078947  0.000000     24.000000
  0.447368  0.078947  0.000000     24.000000
  0.473684  0.078947  0.000000     24.000000
  0.500000  0.078947  0.000000     24.000000
 -0.473684  0.078947  0.000000     24.000000
 -0.447368  0.078947  0.000000     24.000000
 -0.421053  0.078947  0.000000     24.000000
 -0.394737  0.078947  0.000000     24.000000
 -0.368421  0.078947  0.000000     24.000000
 -0.342105  0.078947  0.000000     24.000000
 -0.315789  0.078947  0.000000     24.000000
 -0.289474  0.078947  0.000000     24.000000
 -0.263158  0.078947  0.000000     24.000000
 -0.236842  0.078947  0.000000     24.000000
 -0.210526  0.078947  0.000000     24.000000
 -0.184211  0.078947  0.000000     24.000000
 -0.157895  0.078947  0.000000     24.000000
 -0.131579  0.078947  0.000000     24.000000
 -0.105263  0.078947  0.000000     24.000000
 -0.078947  0.078947  0.000000     12.000000
  0.105263  0.105263  0.000000      6.000000
  0.131579  0.105263  0.000000     24.000000
  0.157895  0.105263  0.000000     24.000000
  0.184211  0.105263  0.000000     24.000000
  0.210526  0.105263  0.000000     24.000000
  0.236842  0.105263  0.000000     24.000000
  0.263158  0.105263  0.000000     24.000000
  0.289474  0.105263  0.000000     24.000000
  0.315789  0.105263  0.000000     24.000000
  0.342105  0.105263  0.000000     24.000000
  0.368421  0.105263  0.000000     24.000000
  0.394737  0.105263  0.000000     24.000000
  0.421053  0.105263  0.000000     24.000000
  0.447368  0.105263  0.000000     24.000000
  0.473684  0.105263  0.000000     24.000000
  0.500000  0.105263  0.000000     24.000000
 -0.473684  0.105263  0.000000     24.000000
 -0.447368  0.105263  0.000000     24.000000
 -0.421053  0.105263  0.000000     24.000000
 -0.394737  0.105263  0.000000     24.000000
 -0.368421  0.105263  0.000000     24.000000
 -0.342105  0.105263  0.000000     24.000000
 -0.315789  0.105263  0.000000     24.000000
 -0.289474  0.105263  0.000000     24.000000
 -0.263158  0.105263  0.000000     24.000000
 -0.236842  0.105263  0.000000     24.000000
 -0.210526  0.105263  0.000000     24.000000
 -0.184211  0.105263  0.000000     24.000000
 -0.157895  0.105263  0.000000     24.000000
 -0.131579  0.105263  0.000000     24.000000
 -0.105263  0.105263  0.000000     12.000000
  0.131579  0.131579  0.000000      6.000000
  0.157895  0.131579  0.000000     24.000000
  0.184211  0.131579  0.000000     24.000000
  0.210526  0.131579  0.000000     24.000000
  0.236842  0.131579  0.000000     24.000000
  0.263158  0.131579  0.000000     24.000000
  0.289474  0.131579  0.000000     24.000000
  0.315789  0.131579  0.000000     24.000000
  0.342105  0.131579  0.000000     24.000000
  0.368421  0.131579  0.000000     24.000000
  0.394737  0.131579  0.000000     24.000000
  0.421053  0.131579  0.000000     24.000000
  0.447368  0.131579  0.000000     24.000000
  0.473684  0.131579  0.000000     24.000000
  0.500000  0.131579  0.000000     24.000000
 -0.473684  0.131579  0.000000     24.000000
 -0.447368  0.131579  0.000000     24.000000
 -0.421053  0.131579  0.000000     24.000000
 -0.394737  0.131579  0.000000     24.000000
 -0.368421  0.131579  0.000000     24.000000
 -0.342105  0.131579  0.000000     24.000000
 -0.315789  0.131579  0.000000     24.000000
 -0.289474  0.131579  0.000000     24.000000
 -0.263158  0.131579  0.000000     24.000000
 -0.236842  0.131579  0.000000     24.000000
 -0.210526  0.131579  0.000000     24.000000
 -0.184211  0.131579  0.000000     24.000000
 -0.157895  0.131579  0.000000     24.000000
 -0.131579  0.131579  0.000000     12.000000
  0.157895  0.157895  0.000000      6.000000
  0.184211  0.157895  0.000000     24.000000
  0.210526  0.157895  0.000000     24.000000
  0.236842  0.157895  0.000000     24.000000
  0.263158  0.157895  0.000000     24.000000
  0.289474  0.157895  0.000000     24.000000
  0.315789  0.157895  0.000000     24.000000
  0.342105  0.157895  0.000000     24.000000
  0.368421  0.157895  0.000000     24.000000
  0.394737  0.157895  0.000000     24.000000
  0.421053  0.157895  0.000000     24.000000
  0.447368  0.157895  0.000000     24.000000
  0.473684  0.157895  0.000000     24.000000
  0.500000  0.157895  0.000000     24.000000
 -0.473684  0.157895  0.000000     24.000000
 -0.447368  0.157895  0.000000     24.000000
 -0.421053  0.157895  0.000000     24.000000
 -0.394737  0.157895  0.000000     24.000000
 -0.368421  0.157895  0.000000     24.000000
 -0.342105  0.157895  0.000000     24.000000
 -0.315789  0.157895  0.000000     24.000000
 -0.289474  0.157895  0.000000     24.000000
 -0.263158  0.157895  0.000000     24.000000
 -0.236842  0.157895  0.000000     24.000000
 -0.210526  0.157895  0.000000     24.000000
 -0.184211  0.157895  0.000000     24.000000
 -0.157895  0.157895  0.000000     12.000000
  0.184211  0.184211  0.000000      6.000000
  0.210526  0.184211  0.000000     24.000000
  0.236842  0.184211  0.000000     24.000000
  0.263158  0.184211  0.000000     24.000000
  0.289474  0.184211  0.000000     24.000000
  0.315789  0.184211  0.000000     24.000000
  0.342105  0.184211  0.000000     24.000000
  0.368421  0.184211  0.000000     24.000000
  0.394737  0.184211  0.000000     24.000000
  0.421053  0.184211  0.000000     24.000000
  0.447368  0.184211  0.000000     24.000000
  0.473684  0.184211  0.000000     24.000000
  0.500000  0.184211  0.000000     24.000000
 -0.473684  0.184211  0.000000     24.000000
 -0.447368  0.184211  0.000000     24.000000
 -0.421053  0.184211  0.000000     24.000000
 -0.394737  0.184211  0.000000     24.000000
 -0.368421  0.184211  0.000000     24.000000
 -0.342105  0.184211  0.000000     24.000000
 -0.315789  0.184211  0.000000     24.000000
 -0.289474  0.184211  0.000000     24.000000
 -0.263158  0.184211  0.000000     24.000000
 -0.236842  0.184211  0.000000     24.000000
 -0.210526  0.184211  0.000000     24.000000
 -0.184211  0.184211  0.000000     12.000000
  0.210526  0.210526  0.000000      6.000000
  0.236842  0.210526  0.000000     24.000000
  0.263158  0.210526  0.000000     24.000000
  0.289474  0.210526  0.000000     24.000000
  0.315789  0.210526  0.000000     24.000000
  0.342105  0.210526  0.000000     24.000000
  0.368421  0.210526  0.000000     24.000000
  0.394737  0.210526  0.000000     24.000000
  0.421053  0.210526  0.000000     24.000000
  0.447368  0.210526  0.000000     24.000000
  0.473684  0.210526  0.000000     24.000000
  0.500000  0.210526  0.000000     24.000000
 -0.473684  0.210526  0.000000     24.000000
 -0.447368  0.210526  0.000000     24.000000
 -0.421053  0.210526  0.000000     24.000000
 -0.394737  0.210526  0.000000     24.000000
 -0.368421  0.210526  0.000000     24.000000
 -0.342105  0.210526  0.000000     24.000000
 -0.315789  0.210526  0.000000     24.000000
 -0.289474  0.210526  0.000000     24.000000
 -0.263158  0.210526  0.000000     24.000000
 -0.236842  0.210526  0.000000     24.000000
 -0.210526  0.210526  0.000000     12.000000
  0.236842  0.236842  0.000000      6.000000
  0.263158  0.236842  0.000000     24.000000
  0.289474  0.236842  0.000000     24.000000
  0.315789  0.236842  0.000000     24.000000
  0.342105  0.236842  0.000000     24.000000
  0.368421  0.236842  0.000000     24.000000
  0.394737  0.236842  0.000000     24.000000
  0.421053  0.236842  0.000000     24.000000
  0.447368  0.236842  0.000000     24.000000
  0.473684  0.236842  0.000000     24.000000
  0.500000  0.236842  0.000000     24.000000
 -0.473684  0.236842  0.000000     24.000000
 -0.447368  0.236842  0.000000     24.000000
 -0.421053  0.236842  0.000000     24.000000
 -0.394737  0.236842  0.000000     24.000000
 -0.368421  0.236842  0.000000     24.000000
 -0.342105  0.236842  0.000000     24.000000
 -0.315789  0.236842  0.000000     24.000000
 -0.289474  0.236842  0.000000     24.000000
 -0.263158  0.236842  0.000000     24.000000
 -0.236842  0.236842  0.000000     12.000000
  0.263158  0.263158  0.000000      6.000000
  0.289474  0.263158  0.000000     24.000000
  0.315789  0.263158  0.000000     24.000000
  0.342105  0.263158  0.000000     24.000000
  0.368421  0.263158  0.000000     24.000000
  0.394737  0.263158  0.000000     24.000000
  0.421053  0.263158  0.000000     24.000000
  0.447368  0.263158  0.000000     24.000000
  0.473684  0.263158  0.000000     24.000000
  0.500000  0.263158  0.000000     24.000000
 -0.473684  0.263158  0.000000     24.000000
 -0.447368  0.263158  0.000000     24.000000
 -0.421053  0.263158  0.000000     24.000000
 -0.394737  0.263158  0.000000     24.000000
 -0.368421  0.263158  0.000000     24.000000
 -0.342105  0.263158  0.000000     24.000000
 -0.315789  0.263158  0.000000     24.000000
 -0.289474  0.263158  0.000000     24.000000
 -0.263158  0.263158  0.000000     12.000000
  0.289474  0.289474  0.000000      6.000000
  0.315789  0.289474  0.000000     24.000000
  0.342105  0.289474  0.000000     24.000000
  0.368421  0.289474  0.000000     24.000000
  0.394737  0.289474  0.000000     24.000000
  0.421053  0.289474  0.000000     24.000000
  0.447368  0.289474  0.000000     24.000000
  0.473684  0.289474  0.000000     24.000000
  0.500000  0.289474  0.000000     24.000000
 -0.473684  0.289474  0.000000     24.000000
 -0.447368  0.289474  0.000000     24.000000
 -0.421053  0.289474  0.000000     24.000000
 -0.394737  0.289474  0.000000     24.000000
 -0.368421  0.289474  0.000000     24.000000
 -0.342105  0.289474  0.000000     24.000000
 -0.315789  0.289474  0.000000     24.000000
 -0.289474  0.289474  0.000000     12.000000
  0.315789  0.315789  0.000000      6.000000
  0.342105  0.315789  0.000000     24.000000
  0.368421  0.315789  0.000000     24.000000
  0.394737  0.315789  0.000000     24.000000
  0.421053  0.315789  0.000000     24.000000
  0.447368  0.315789  0.000000     24.000000
  0.473684  0.315789  0.000000     24.000000
  0.500000  0.315789  0.000000     24.000000
 -0.473684  0.315789  0.000000     24.000000
 -0.447368  0.315789  0.000000     24.000000
 -0.421053  0.315789  0.000000     24.000000
 -0.394737  0.315789  0.000000     24.000000
 -0.368421  0.315789  0.000000     24.000000
 -0.342105  0.315789  0.000000     24.000000
 -0.315789  0.315789  0.000000     12.000000
  0.342105  0.342105  0.000000      6.000000
  0.368421  0.342105  0.000000     24.000000
  0.394737  0.342105  0.000000     24.000000
  0.421053  0.342105  0.000000     24.000000
  0.447368  0.342105  0.000000     24.000000
  0.473684  0.342105  0.000000     24.000000
  0.500000  0.342105  0.000000     24.000000
 -0.473684  0.342105  0.000000     24.000000
 -0.447368  0.342105  0.000000     24.000000
 -0.421053  0.342105  0.000000     24.000000
 -0.394737  0.342105  0.000000     24.000000
 -0.368421  0.342105  0.000000     24.000000
 -0.342105  0.342105  0.000000     12.000000
  0.368421  0.368421  0.000000      6.000000
  0.394737  0.368421  0.000000     24.000000
  0.421053  0.368421  0.000000     24.000000
  0.447368  0.368421  0.000000     24.000000
  0.473684  0.368421  0.000000     24.000000
  0.500000  0.368421  0.000000     24.000000
 -0.473684  0.368421  0.000000     24.000000
 -0.447368  0.368421  0.000000     24.000000
 -0.421053  0.368421  0.000000     24.000000
 -0.394737  0.368421  0.000000     24.000000
 -0.368421  0.368421  0.000000     12.000000
  0.394737  0.394737  0.000000      6.000000
  0.421053  0.394737  0.000000     24.000000
  0.447368  0.394737  0.000000     24.000000
  0.473684  0.394737  0.000000     24.000000
  0.500000  0.394737  0.000000     24.000000
 -0.473684  0.394737  0.000000     24.000000
 -0.447368  0.394737  0.000000     24.000000
 -0.421053  0.394737  0.000000     24.000000
 -0.394737  0.394737  0.000000     12.000000
  0.421053  0.421053  0.000000      6.000000
  0.447368  0.421053  0.000000     24.000000
  0.473684  0.421053  0.000000     24.000000
  0.500000  0.421053  0.000000     24.000000
 -0.473684  0.421053  0.000000     24.000000
 -0.447368  0.421053  0.000000     24.000000
 -0.421053  0.421053  0.000000     12.000000
  0.447368  0.447368  0.000000      6.000000
  0.473684  0.447368  0.000000     24.000000
  0.500000  0.447368  0.000000     24.000000
 -0.473684  0.447368  0.000000     24.000000
 -0.447368  0.447368  0.000000     12.000000
  0.473684  0.473684  0.000000      6.000000
  0.500000  0.473684  0.000000     24.000000
 -0.473684  0.473684  0.000000     12.000000
  0.500000  0.500000  0.000000      3.000000
  0.078947  0.052632  0.026316     24.000000
  0.105263  0.052632  0.026316     48.000000
  0.131579  0.052632  0.026316     48.000000
  0.157895  0.052632  0.026316     48.000000
  0.184211  0.052632  0.026316     48.000000
  0.210526  0.052632  0.026316     48.000000
  0.236842  0.052632  0.026316     48.000000
  0.263158  0.052632  0.026316     48.000000
  0.289474  0.052632  0.026316     48.000000
  0.315789  0.052632  0.026316     48.000000
  0.342105  0.052632  0.026316     48.000000
  0.368421  0.052632  0.026316     48.000000
  0.394737  0.052632  0.026316     48.000000
  0.421053  0.052632  0.026316     48.000000
  0.447368  0.052632  0.026316     48.000000
  0.473684  0.052632  0.026316     48.000000
  0.500000  0.052632  0.026316     48.000000
 -0.473684  0.052632  0.026316     24.000000
  0.105263  0.078947  0.026316     24.000000
  0.131579  0.078947  0.026316     48.000000
  0.157895  0.078947  0.026316     48.000000
  0.184211  0.078947  0.026316     48.000000
  0.210526  0.078947  0.026316     48.000000
  0.236842  0.078947  0.026316     48.000000
  0.263158  0.078947  0.026316     48.000000
  0.289474  0.078947  0.026316     48.000000
  0.315789  0.078947  0.026316     48.000000
  0.342105  0.078947  0.026316     48.000000
  0.368421  0.078947  0.026316     48.000000
  0.394737  0.078947  0.026316     48.000000
  0.421053  0.078947  0.026316     48.000000
  0.447368  0.078947  0.026316     48.000000
  0.473684  0.078947  0.026316     48.000000
  0.500000  0.078947  0.026316     48.000000
 -0.473684  0.078947  0.026316     48.000000
 -0.447368  0.078947  0.026316     48.000000
 -0.421053  0.078947  0.026316     48.000000
 -0.394737  0.078947  0.026316     48.000000
 -0.368421  0.078947  0.026316     48.000000
 -0.342105  0.078947  0.026316     48.000000
 -0.315789  0.078947  0.026316     48.000000
 -0.289474  0.078947  0.026316     48.000000
 -0.263158  0.078947  0.026316     48.000000
 -0.236842  0.078947  0.026316     48.000000
 -0.210526  0.078947  0.026316     48.000000
 -0.184211  0.078947  0.026316     48.000000
 -0.157895  0.078947  0.026316     48.000000
 -0.131579  0.078947  0.026316     48.000000
 -0.105263  0.078947  0.026316     48.000000
 -0.078947  0.078947  0.026316     48.000000
 -0.052632  0.078947  0.026316     24.000000
  0.131579  0.105263  0.026316     24.000000
  0.157895  0.105263  0.026316     48.000000
  0.184211  0.105263  0.026316     48.000000
  0.210526  0.105263  0.026316     48.000000
  0.236842  0.105263  0.026316     48.000000
  0.263158  0.105263  0.026316     48.000000
  0.289474  0.105263  0.026316     48.000000
  0.315789  0.105263  0.026316     48.000000
  0.342105  0.105263  0.026316     48.000000
  0.368421  0.105263  0.026316     48.000000
  0.394737  0.105263  0.026316     48.000000
  0.421053  0.105263  0.026316     48.000000
  0.447368  0.105263  0.026316     48.000000
  0.473684  0.105263  0.026316     48.000000
  0.500000  0.105263  0.026316     48.000000
 -0.473684  0.105263  0.026316     48.000000
 -0.447368  0.105263  0.026316     48.000000
 -0.421053  0.105263  0.026316     48.000000
 -0.394737  0.105263  0.026316     48.000000
 -0.368421  0.105263  0.026316     48.000000
 -0.342105  0.105263  0.026316     48.000000
 -0.315789  0.105263  0.026316     48.000000
 -0.289474  0.105263  0.026316     48.000000
 -0.263158  0.105263  0.026316     48.000000
 -0.236842  0.105263  0.026316     48.000000
 -0.210526  0.105263  0.026316     48.000000
 -0.184211  0.105263  0.026316     48.000000
 -0.157895  0.105263  0.026316     48.000000
 -0.131579  0.105263  0.026316     48.000000
 -0.105263  0.105263  0.026316     48.000000
 -0.078947  0.105263  0.026316     24.000000
  0.157895  0.131579  0.026316     24.000000
  0.184211  0.131579  0.026316     48.000000
  0.210526  0.131579  0.026316     48.000000
  0.236842  0.131579  0.026316     48.000000
  0.263158  0.131579  0.026316     48.000000
  0.289474  0.131579  0.026316     48.000000
  0.315789  0.131579  0.026316     48.000000
  0.342105  0.131579  0.026316     48.000000
  0.368421  0.131579  0.026316     48.000000
  0.394737  0.131579  0.026316     48.000000
  0.421053  0.131579  0.026316     48.000000
  0.447368  0.131579  0.026316     48.000000
  0.473684  0.131579  0.026316     48.000000
  0.500000  0.131579  0.026316     48.000000
 -0.473684  0.131579  0.026316     48.000000
 -0.447368  0.131579  0.026316     48.000000
 -0.421053  0.131579  0.026316     48.000000
 -0.394737  0.131579  0.026316     48.000000
 -0.368421  0.131579  0.026316     48.000000
 -0.342105  0.131579  0.026316     48.000000
 -0.315789  0.131579  0.026316     48.000000
 -0.289474  0.131579  0.026316     48.000000
 -0.263158  0.131579  0.026316     48.000000
 -0.236842  0.131579  0.026316     48.000000
 -0.210526  0.131579  0.026316     48.000000
 -0.184211  0.131579  0.026316     48.000000
 -0.157895  0.131579  0.026316     48.000000
 -0.131579  0.131579  0.026316     48.000000
 -0.105263  0.131579  0.026316     24.000000
  0.184211  0.157895  0.026316     24.000000
  0.210526  0.157895  0.026316     48.000000
  0.236842  0.157895  0.026316     48.000000
  0.263158  0.157895  0.026316     48.000000
  0.289474  0.157895  0.026316     48.000000
  0.315789  0.157895  0.026316     48.000000
  0.342105  0.157895  0.026316     48.000000
  0.368421  0.157895  0.026316     48.000000
  0.394737  0.157895  0.026316     48.000000
  0.421053  0.157895  0.026316     48.000000
  0.447368  0.157895  0.026316     48.000000
  0.473684  0.157895  0.026316     48.000000
  0.500000  0.157895  0.026316     48.000000
 -0.473684  0.157895  0.026316     48.000000
 -0.447368  0.157895  0.026316     48.000000
 -0.421053  0.157895  0.026316     48.000000
 -0.394737  0.157895  0.026316     48.000000
 -0.368421  0.157895  0.026316     48.000000
 -0.342105  0.157895  0.026316     48.000000
 -0.315789  0.157895  0.026316     48.000000
 -0.289474  0.157895  0.026316     48.000000
 -0.263158  0.157895  0.026316     48.000000
 -0.236842  0.157895  0.026316     48.000000
 -0.210526  0.157895  0.026316     48.000000
 -0.184211  0.157895  0.026316     48.000000
 -0.157895  0.157895  0.026316     48.000000
 -0.131579  0.157895  0.026316     24.000000
  0.210526  0.184211  0.026316     24.000000
  0.236842  0.184211  0.026316     48.000000
  0.263158  0.184211  0.026316     48.000000
  0.289474  0.184211  0.026316     48.000000
  0.315789  0.184211  0.026316     48.000000
  0.342105  0.184211  0.026316     48.000000
  0.368421  0.184211  0.026316     48.000000
  0.394737  0.184211  0.026316     48.000000
  0.421053  0.184211  0.026316     48.000000
  0.447368  0.184211  0.026316     48.000000
  0.473684  0.184211  0.026316     48.000000
  0.500000  0.184211  0.026316     48.000000
 -0.473684  0.184211  0.026316     48.000000
 -0.447368  0.184211  0.026316     48.000000
 -0.421053  0.184211  0.026316     48.000000
 -0.394737  0.184211  0.026316     48.000000
 -0.368421  0.184211  0.026316     48.000000
 -0.342105  0.184211  0.026316     48.000000
 -0.315789  0.184211  0.026316     48.000000
 -0.289474  0.184211  0.026316     48.000000
 -0.263158  0.184211  0.026316     48.000000
 -0.236842  0.184211  0.026316     48.000000
 -0.210526  0.184211  0.026316     48.000000
 -0.184211  0.184211  0.026316     48.000000
 -0.157895  0.184211  0.026316     24.000000
  0.236842  0.210526  0.026316     24.000000
  0.263158  0.210526  0.026316     48.000000
  0.289474  0.210526  0.026316     48.000000
  0.315789  0.210526  0.026316     48.000000
  0.342105  0.210526  0.026316     48.000000
  0.368421  0.210526  0.026316     48.000000
  0.394737  0.210526  0.026316     48.000000
  0.421053  0.210526  0.026316     48.000000
  0.447368  0.210526  0.026316     48.000000
  0.473684  0.210526  0.026316     48.000000
  0.500000  0.210526  0.026316     48.000000
 -0.473684  0.210526  0.026316     48.000000
 -0.447368  0.210526  0.026316     48.000000
 -0.421053  0.210526  0.026316     48.000000
 -0.394737  0.210526  0.026316     48.000000
 -0.368421  0.210526  0.026316     48.000000
 -0.342105  0.210526  0.026316     48.000000
 -0.315789  0.210526  0.026316     48.000000
 -0.289474  0.210526  0.026316     48.000000
 -0.263158  0.210526  0.026316     48.000000
 -0.236842  0.210526  0.026316     48.000000
 -0.210526  0.210526  0.026316     48.000000
 -0.184211  0.210526  0.026316     24.000000
  0.263158  0.236842  0.026316     24.000000
  0.289474  0.236842  0.026316     48.000000
  0.315789  0.236842  0.026316     48.000000
  0.342105  0.236842  0.026316     48.000000
  0.368421  0.236842  0.026316     48.000000
  0.394737  0.236842  0.026316     48.000000
  0.421053  0.236842  0.026316     48.000000
  0.447368  0.236842  0.026316     48.000000
  0.473684  0.236842  0.026316     48.000000
  0.500000  0.236842  0.026316     48.000000
 -0.473684  0.236842  0.026316     48.000000
 -0.447368  0.236842  0.026316     48.000000
 -0.421053  0.236842  0.026316     48.000000
 -0.394737  0.236842  0.026316     48.000000
 -0.368421  0.236842  0.026316     48.000000
 -0.342105  0.236842  0.026316     48.000000
 -0.315789  0.236842  0.026316     48.000000
 -0.289474  0.236842  0.026316     48.000000
 -0.263158  0.236842  0.026316     48.000000
 -0.236842  0.236842  0.026316     48.000000
 -0.210526  0.236842  0.026316     24.000000
  0.289474  0.263158  0.026316     24.000000
  0.315789  0.263158  0.026316     48.000000
  0.342105  0.263158  0.026316     48.000000
  0.368421  0.263158  0.026316     48.000000
  0.394737  0.263158  0.026316     48.000000
  0.421053  0.263158  0.026316     48.000000
  0.447368  0.263158  0.026316     48.000000
  0.473684  0.263158  0.026316     48.000000
  0.500000  0.263158  0.026316     48.000000
 -0.473684  0.263158  0.026316     48.000000
 -0.447368  0.263158  0.026316     48.000000
 -0.421053  0.263158  0.026316     48.000000
 -0.394737  0.263158  0.026316     48.000000
 -0.368421  0.263158  0.026316     48.000000
 -0.342105  0.263158  0.026316     48.000000
 -0.315789  0.263158  0.026316     48.000000
 -0.289474  0.263158  0.026316     48.000000
 -0.263158  0.263158  0.026316     48.000000
 -0.236842  0.263158  0.026316     24.000000
  0.315789  0.289474  0.026316     24.000000
  0.342105  0.289474  0.026316     48.000000
  0.368421  0.289474  0.026316     48.000000
  0.394737  0.289474  0.026316     48.000000
  0.421053  0.289474  0.026316     48.000000
  0.447368  0.289474  0.026316     48.000000
  0.473684  0.289474  0.026316     48.000000
  0.500000  0.289474  0.026316     48.000000
 -0.473684  0.289474  0.026316     48.000000
 -0.447368  0.289474  0.026316     48.000000
 -0.421053  0.289474  0.026316     48.000000
 -0.394737  0.289474  0.026316     48.000000
 -0.368421  0.289474  0.026316     48.000000
 -0.342105  0.289474  0.026316     48.000000
 -0.315789  0.289474  0.026316     48.000000
 -0.289474  0.289474  0.026316     48.000000
 -0.263158  0.289474  0.026316     24.000000
  0.342105  0.315789  0.026316     24.000000
  0.368421  0.315789  0.026316     48.000000
  0.394737  0.315789  0.026316     48.000000
  0.421053  0.315789  0.026316     48.000000
  0.447368  0.315789  0.026316     48.000000
  0.473684  0.315789  0.026316     48.000000
  0.500000  0.315789  0.026316     48.000000
 -0.473684  0.315789  0.026316     48.000000
 -0.447368  0.315789  0.026316     48.000000
 -0.421053  0.315789  0.026316     48.000000
 -0.394737  0.315789  0.026316     48.000000
 -0.368421  0.315789  0.026316     48.000000
 -0.342105  0.315789  0.026316     48.000000
 -0.315789  0.315789  0.026316     48.000000
 -0.289474  0.315789  0.026316     24.000000
  0.368421  0.342105  0.026316     24.000000
  0.394737  0.342105  0.026316     48.000000
  0.421053  0.342105  0.026316     48.000000
  0.447368  0.342105  0.026316     48.000000
  0.473684  0.342105  0.026316     48.000000
  0.500000  0.342105  0.026316     48.000000
 -0.473684  0.342105  0.026316     48.000000
 -0.447368  0.342105  0.026316     48.000000
 -0.421053  0.342105  0.026316     48.000000
 -0.394737  0.342105  0.026316     48.000000
 -0.368421  0.342105  0.026316     48.000000
 -0.342105  0.342105  0.026316     48.000000
 -0.315789  0.342105  0.026316     24.000000
  0.394737  0.368421  0.026316     24.000000
  0.421053  0.368421  0.026316     48.000000
  0.447368  0.368421  0.026316     48.000000
  0.473684  0.368421  0.026316     48.000000
  0.500000  0.368421  0.026316     48.000000
 -0.473684  0.368421  0.026316     48.000000
 -0.447368  0.368421  0.026316     48.000000
 -0.421053  0.368421  0.026316     48.000000
 -0.394737  0.368421  0.026316     48.000000
 -0.368421  0.368421  0.026316     48.000000
 -0.342105  0.368421  0.026316     24.000000
  0.421053  0.394737  0.026316     24.000000
  0.447368  0.394737  0.026316     48.000000
  0.473684  0.394737  0.026316     48.000000
  0.500000  0.394737  0.026316     48.000000
 -0.473684  0.394737  0.026316     48.000000
 -0.447368  0.394737  0.026316     48.000000
 -0.421053  0.394737  0.026316     48.000000
 -0.394737  0.394737  0.026316     48.000000
 -0.368421  0.394737  0.026316     24.000000
  0.447368  0.421053  0.026316     24.000000
  0.473684  0.421053  0.026316     48.000000
  0.500000  0.421053  0.026316     48.000000
 -0.473684  0.421053  0.026316     48.000000
 -0.447368  0.421053  0.026316     48.000000
 -0.421053  0.421053  0.026316     48.000000
 -0.394737  0.421053  0.026316     24.000000
  0.473684  0.447368  0.026316     24.000000
  0.500000  0.447368  0.026316     48.000000
 -0.473684  0.447368  0.026316     48.000000
 -0.447368  0.447368  0.026316     48.000000
 -0.421053  0.447368  0.026316     24.000000
  0.500000  0.473684  0.026316     24.000000
 -0.473684  0.473684  0.026316     48.000000
 -0.447368  0.473684  0.026316     24.000000
 -0.473684  0.500000  0.026316     12.000000
  0.157895  0.105263  0.052632     24.000000
  0.184211  0.105263  0.052632     48.000000
  0.210526  0.105263  0.052632     48.000000
  0.236842  0.105263  0.052632     48.000000
  0.263158  0.105263  0.052632     48.000000
  0.289474  0.105263  0.052632     48.000000
  0.315789  0.105263  0.052632     48.000000
  0.342105  0.105263  0.052632     48.000000
  0.368421  0.105263  0.052632     48.000000
  0.394737  0.105263  0.052632     48.000000
  0.421053  0.105263  0.052632     48.000000
  0.447368  0.105263  0.052632     48.000000
  0.473684  0.105263  0.052632     48.000000
  0.500000  0.105263  0.052632     48.000000
 -0.473684  0.105263  0.052632     48.000000
 -0.447368  0.105263  0.052632     24.000000
  0.184211  0.131579  0.052632     24.000000
  0.210526  0.131579  0.052632     48.000000
  0.236842  0.131579  0.052632     48.000000
  0.263158  0.131579  0.052632     48.000000
  0.289474  0.131579  0.052632     48.000000
  0.315789  0.131579  0.052632     48.000000
  0.342105  0.131579  0.052632     48.000000
  0.368421  0.131579  0.052632     48.000000
  0.394737  0.131579  0.052632     48.000000
  0.421053  0.131579  0.052632     48.000000
  0.447368  0.131579  0.052632     48.000000
  0.473684  0.131579  0.052632     48.000000
  0.500000  0.131579  0.052632     48.000000
 -0.473684  0.131579  0.052632     48.000000
 -0.447368  0.131579  0.052632     48.000000
 -0.421053  0.131579  0.052632     48.000000
 -0.394737  0.131579  0.052632     48.000000
 -0.368421  0.131579  0.052632     48.000000
 -0.342105  0.131579  0.052632     48.000000
 -0.315789  0.131579  0.052632     48.000000
 -0.289474  0.131579  0.052632     48.000000
 -0.263158  0.131579  0.052632     48.000000
 -0.236842  0.131579  0.052632     48.000000
 -0.210526  0.131579  0.052632     48.000000
 -0.184211  0.131579  0.052632     48.000000
 -0.157895  0.131579  0.052632     48.000000
 -0.131579  0.131579  0.052632     48.000000
 -0.105263  0.131579  0.052632     48.000000
 -0.078947  0.131579  0.052632     24.000000
  0.210526  0.157895  0.052632     24.000000
  0.236842  0.157895  0.052632     48.000000
  0.263158  0.157895  0.052632     48.000000
  0.289474  0.157895  0.052632     48.000000
  0.315789  0.157895  0.052632     48.000000
  0.342105  0.157895  0.052632     48.000000
  0.368421  0.157895  0.052632     48.000000
  0.394737  0.157895  0.052632     48.000000
  0.421053  0.157895  0.052632     48.000000
  0.447368  0.157895  0.052632     48.000000
  0.473684  0.157895  0.052632     48.000000
  0.500000  0.157895  0.052632     48.000000
 -0.473684  0.157895  0.052632     48.000000
 -0.447368  0.157895  0.052632     48.000000
 -0.421053  0.157895  0.052632     48.000000
 -0.394737  0.157895  0.052632     48.000000
 -0.368421  0.157895  0.052632     48.000000
 -0.342105  0.157895  0.052632     48.000000
 -0.315789  0.157895  0.052632     48.000000
 -0.289474  0.157895  0.052632     48.000000
 -0.263158  0.157895  0.052632     48.000000
 -0.236842  0.157895  0.052632     48.000000
 -0.210526  0.157895  0.052632     48.000000
 -0.184211  0.157895  0.052632     48.000000
 -0.157895  0.157895  0.052632     48.000000
 -0.131579  0.157895  0.052632     48.000000
 -0.105263  0.157895  0.052632     24.000000
  0.236842  0.184211  0.052632     24.000000
  0.263158  0.184211  0.052632     48.000000
  0.289474  0.184211  0.052632     48.000000
  0.315789  0.184211  0.052632     48.000000
  0.342105  0.184211  0.052632     48.000000
  0.368421  0.184211  0.052632     48.000000
  0.394737  0.184211  0.052632     48.000000
  0.421053  0.184211  0.052632     48.000000
  0.447368  0.184211  0.052632     48.000000
  0.473684  0.184211  0.052632     48.000000
  0.500000  0.184211  0.052632     48.000000
 -0.473684  0.184211  0.052632     48.000000
 -0.447368  0.184211  0.052632     48.000000
 -0.421053  0.184211  0.052632     48.000000
 -0.394737  0.184211  0.052632     48.000000
 -0.368421  0.184211  0.052632     48.000000
 -0.342105  0.184211  0.052632     48.000000
 -0.315789  0.184211  0.052632     48.000000
 -0.289474  0.184211  0.052632     48.000000
 -0.263158  0.184211  0.052632     48.000000
 -0.236842  0.184211  0.052632     48.000000
 -0.210526  0.184211  0.052632     48.000000
 -0.184211  0.184211  0.052632     48.000000
 -0.157895  0.184211  0.052632     48.000000
 -0.131579  0.184211  0.052632     24.000000
  0.263158  0.210526  0.052632     24.000000
  0.289474  0.210526  0.052632     48.000000
  0.315789  0.210526  0.052632     48.000000
  0.342105  0.210526  0.052632     48.000000
  0.368421  0.210526  0.052632     48.000000
  0.394737  0.210526  0.052632     48.000000
  0.421053  0.210526  0.052632     48.000000
  0.447368  0.210526  0.052632     48.000000
  0.473684  0.210526  0.052632     48.000000
  0.500000  0.210526  0.052632     48.000000
 -0.473684  0.210526  0.052632     48.000000
 -0.447368  0.210526  0.052632     48.000000
 -0.421053  0.210526  0.052632     48.000000
 -0.394737  0.210526  0.052632     48.000000
 -0.368421  0.210526  0.052632     48.000000
 -0.342105  0.210526  0.052632     48.000000
 -0.315789  0.210526  0.052632     48.000000
 -0.289474  0.210526  0.052632     48.000000
 -0.263158  0.210526  0.052632     48.000000
 -0.236842  0.210526  0.052632     48.000000
 -0.210526  0.210526  0.052632     48.000000
 -0.184211  0.210526  0.052632     48.000000
 -0.157895  0.210526  0.052632     24.000000
  0.289474  0.236842  0.052632     24.000000
  0.315789  0.236842  0.052632     48.000000
  0.342105  0.236842  0.052632     48.000000
  0.368421  0.236842  0.052632     48.000000
  0.394737  0.236842  0.052632     48.000000
  0.421053  0.236842  0.052632     48.000000
  0.447368  0.236842  0.052632     48.000000
  0.473684  0.236842  0.052632     48.000000
  0.500000  0.236842  0.052632     48.000000
 -0.473684  0.236842  0.052632     48.000000
 -0.447368  0.236842  0.052632     48.000000
 -0.421053  0.236842  0.052632     48.000000
 -0.394737  0.236842  0.052632     48.000000
 -0.368421  0.236842  0.052632     48.000000
 -0.342105  0.236842  0.052632     48.000000
 -0.315789  0.236842  0.052632     48.000000
 -0.289474  0.236842  0.052632     48.000000
 -0.263158  0.236842  0.052632     48.000000
 -0.236842  0.236842  0.052632     48.000000
 -0.210526  0.236842  0.052632     48.000000
 -0.184211  0.236842  0.052632     24.000000
  0.315789  0.263158  0.052632     24.000000
  0.342105  0.263158  0.052632     48.000000
  0.368421  0.263158  0.052632     48.000000
  0.394737  0.263158  0.052632     48.000000
  0.421053  0.263158  0.052632     48.000000
  0.447368  0.263158  0.052632     48.000000
  0.473684  0.263158  0.052632     48.000000
  0.500000  0.263158  0.052632     48.000000
 -0.473684  0.263158  0.052632     48.000000
 -0.447368  0.263158  0.052632     48.000000
 -0.421053  0.263158  0.052632     48.000000
 -0.394737  0.263158  0.052632     48.000000
 -0.368421  0.263158  0.052632     48.000000
 -0.342105  0.263158  0.052632     48.000000
 -0.315789  0.263158  0.052632     48.000000
 -0.289474  0.263158  0.052632     48.000000
 -0.263158  0.263158  0.052632     48.000000
 -0.236842  0.263158  0.052632     48.000000
 -0.210526  0.263158  0.052632     24.000000
  0.342105  0.289474  0.052632     24.000000
  0.368421  0.289474  0.052632     48.000000
  0.394737  0.289474  0.052632     48.000000
  0.421053  0.289474  0.052632     48.000000
  0.447368  0.289474  0.052632     48.000000
  0.473684  0.289474  0.052632     48.000000
  0.500000  0.289474  0.052632     48.000000
 -0.473684  0.289474  0.052632     48.000000
 -0.447368  0.289474  0.052632     48.000000
 -0.421053  0.289474  0.052632     48.000000
 -0.394737  0.289474  0.052632     48.000000
 -0.368421  0.289474  0.052632     48.000000
 -0.342105  0.289474  0.052632     48.000000
 -0.315789  0.289474  0.052632     48.000000
 -0.289474  0.289474  0.052632     48.000000
 -0.263158  0.289474  0.052632     48.000000
 -0.236842  0.289474  0.052632     24.000000
  0.368421  0.315789  0.052632     24.000000
  0.394737  0.315789  0.052632     48.000000
  0.421053  0.315789  0.052632     48.000000
  0.447368  0.315789  0.052632     48.000000
  0.473684  0.315789  0.052632     48.000000
  0.500000  0.315789  0.052632     48.000000
 -0.473684  0.315789  0.052632     48.000000
 -0.447368  0.315789  0.052632     48.000000
 -0.421053  0.315789  0.052632     48.000000
 -0.394737  0.315789  0.052632     48.000000
 -0.368421  0.315789  0.052632     48.000000
 -0.342105  0.315789  0.052632     48.000000
 -0.315789  0.315789  0.052632     48.000000
 -0.289474  0.315789  0.052632     48.000000
 -0.263158  0.315789  0.052632     24.000000
  0.394737  0.342105  0.052632     24.000000
  0.421053  0.342105  0.052632     48.000000
  0.447368  0.342105  0.052632     48.000000
  0.473684  0.342105  0.052632     48.000000
  0.500000  0.342105  0.052632     48.000000
 -0.473684  0.342105  0.052632     48.000000
 -0.447368  0.342105  0.052632     48.000000
 -0.421053  0.342105  0.052632     48.000000
 -0.394737  0.342105  0.052632     48.000000
 -0.368421  0.342105  0.052632     48.000000
 -0.342105  0.342105  0.052632     48.000000
 -0.315789  0.342105  0.052632     48.000000
 -0.289474  0.342105  0.052632     24.000000
  0.421053  0.368421  0.052632     24.000000
  0.447368  0.368421  0.052632     48.000000
  0.473684  0.368421  0.052632     48.000000
  0.500000  0.368421  0.052632     48.000000
 -0.473684  0.368421  0.052632     48.000000
 -0.447368  0.368421  0.052632     48.000000
 -0.421053  0.368421  0.052632     48.000000
 -0.394737  0.368421  0.052632     48.000000
 -0.368421  0.368421  0.052632     48.000000
 -0.342105  0.368421  0.052632     48.000000
 -0.315789  0.368421  0.052632     24.000000
  0.447368  0.394737  0.052632     24.000000
  0.473684  0.394737  0.052632     48.000000
  0.500000  0.394737  0.052632     48.000000
 -0.473684  0.394737  0.052632     48.000000
 -0.447368  0.394737  0.052632     48.000000
 -0.421053  0.394737  0.052632     48.000000
 -0.394737  0.394737  0.052632     48.000000
 -0.368421  0.394737  0.052632     48.000000
 -0.342105  0.394737  0.052632     24.000000
  0.473684  0.421053  0.052632     24.000000
  0.500000  0.421053  0.052632     48.000000
 -0.473684  0.421053  0.052632     48.000000
 -0.447368  0.421053  0.052632     48.000000
 -0.421053  0.421053  0.052632     48.000000
 -0.394737  0.421053  0.052632     48.000000
 -0.368421  0.421053  0.052632     24.000000
  0.500000  0.447368  0.052632     24.000000
 -0.473684  0.447368  0.052632     48.000000
 -0.447368  0.447368  0.052632     48.000000
 -0.421053  0.447368  0.052632     48.000000
 -0.394737  0.447368  0.052632     24.000000
 -0.473684  0.473684  0.052632     24.000000
 -0.447368  0.473684  0.052632     48.000000
 -0.421053  0.473684  0.052632     24.000000
 -0.447368  0.500000  0.052632     12.000000
  0.236842  0.157895  0.078947     24.000000
  0.263158  0.157895  0.078947     48.000000
  0.289474  0.157895  0.078947     48.000000
  0.315789  0.157895  0.078947     48.000000
  0.342105  0.157895  0.078947     48.000000
  0.368421  0.157895  0.078947     48.000000
  0.394737  0.157895  0.078947     48.000000
  0.421053  0.157895  0.078947     48.000000
  0.447368  0.157895  0.078947     48.000000
  0.473684  0.157895  0.078947     48.000000
  0.500000  0.157895  0.078947     48.000000
 -0.473684  0.157895  0.078947     48.000000
 -0.447368  0.157895  0.078947     48.000000
 -0.421053  0.157895  0.078947     24.000000
  0.263158  0.184211  0.078947     24.000000
  0.289474  0.184211  0.078947     48.000000
  0.315789  0.184211  0.078947     48.000000
  0.342105  0.184211  0.078947     48.000000
  0.368421  0.184211  0.078947     48.000000
  0.394737  0.184211  0.078947     48.000000
  0.421053  0.184211  0.078947     48.000000
  0.447368  0.184211  0.078947     48.000000
  0.473684  0.184211  0.078947     48.000000
  0.500000  0.184211  0.078947     48.000000
 -0.473684  0.184211  0.078947     48.000000
 -0.447368  0.184211  0.078947     48.000000
 -0.421053  0.184211  0.078947     48.000000
 -0.394737  0.184211  0.078947     48.000000
 -0.368421  0.184211  0.078947     48.000000
 -0.342105  0.184211  0.078947     48.000000
 -0.315789  0.184211  0.078947     48.000000
 -0.289474  0.184211  0.078947     48.000000
 -0.263158  0.184211  0.078947     48.000000
 -0.236842  0.184211  0.078947     48.000000
 -0.210526  0.184211  0.078947     48.000000
 -0.184211  0.184211  0.078947     48.000000
 -0.157895  0.184211  0.078947     48.000000
 -0.131579  0.184211  0.078947     48.000000
 -0.105263  0.184211  0.078947     24.000000
  0.289474  0.210526  0.078947     24.000000
  0.315789  0.210526  0.078947     48.000000
  0.342105  0.210526  0.078947     48.000000
  0.368421  0.210526  0.078947     48.000000
  0.394737  0.210526  0.078947     48.000000
  0.421053  0.210526  0.078947     48.000000
  0.447368  0.210526  0.078947     48.000000
  0.473684  0.210526  0.078947     48.000000
  0.500000  0.210526  0.078947     48.000000
 -0.473684  0.210526  0.078947     48.000000
 -0.447368  0.210526  0.078947     48.000000
 -0.421053  0.210526  0.078947     48.000000
 -0.394737  0.210526  0.078947     48.000000
 -0.368421  0.210526  0.078947     48.000000
 -0.342105  0.210526  0.078947     48.000000
 -0.315789  0.210526  0.078947     48.000000
 -0.289474  0.210526  0.078947     48.000000
 -0.263158  0.210526  0.078947     48.000000
 -0.236842  0.210526  0.078947     48.000000
 -0.210526  0.210526  0.078947     48.000000
 -0.184211  0.210526  0.078947     48.000000
 -0.157895  0.210526  0.078947     48.000000
 -0.131579  0.210526  0.078947     24.000000
  0.315789  0.236842  0.078947     24.000000
  0.342105  0.236842  0.078947     48.000000
  0.368421  0.236842  0.078947     48.000000
  0.394737  0.236842  0.078947     48.000000
  0.421053  0.236842  0.078947     48.000000
  0.447368  0.236842  0.078947     48.000000
  0.473684  0.236842  0.078947     48.000000
  0.500000  0.236842  0.078947     48.000000
 -0.473684  0.236842  0.078947     48.000000
 -0.447368  0.236842  0.078947     48.000000
 -0.421053  0.236842  0.078947     48.000000
 -0.394737  0.236842  0.078947     48.000000
 -0.368421  0.236842  0.078947     48.000000
 -0.342105  0.236842  0.078947     48.000000
 -0.315789  0.236842  0.078947     48.000000
 -0.289474  0.236842  0.078947     48.000000
 -0.263158  0.236842  0.078947     48.000000
 -0.236842  0.236842  0.078947     48.000000
 -0.210526  0.236842  0.078947     48.000000
 -0.184211  0.236842  0.078947     48.000000
 -0.157895  0.236842  0.078947     24.000000
  0.342105  0.263158  0.078947     24.000000
  0.368421  0.263158  0.078947     48.000000
  0.394737  0.263158  0.078947     48.000000
  0.421053  0.263158  0.078947     48.000000
  0.447368  0.263158  0.078947     48.000000
  0.473684  0.263158  0.078947     48.000000
  0.500000  0.263158  0.078947     48.000000
 -0.473684  0.263158  0.078947     48.000000
 -0.447368  0.263158  0.078947     48.000000
 -0.421053  0.263158  0.078947     48.000000
 -0.394737  0.263158  0.078947     48.000000
 -0.368421  0.263158  0.078947     48.000000
 -0.342105  0.263158  0.078947     48.000000
 -0.315789  0.263158  0.078947     48.000000
 -0.289474  0.263158  0.078947     48.000000
 -0.263158  0.263158  0.078947     48.000000
 -0.236842  0.263158  0.078947     48.000000
 -0.210526  0.263158  0.078947     48.000000
 -0.184211  0.263158  0.078947     24.000000
  0.368421  0.289474  0.078947     24.000000
  0.394737  0.289474  0.078947     48.000000
  0.421053  0.289474  0.078947     48.000000
  0.447368  0.289474  0.078947     48.000000
  0.473684  0.289474  0.078947     48.000000
  0.500000  0.289474  0.078947     48.000000
 -0.473684  0.289474  0.078947     48.000000
 -0.447368  0.289474  0.078947     48.000000
 -0.421053  0.289474  0.078947     48.000000
 -0.394737  0.289474  0.078947     48.000000
 -0.368421  0.289474  0.078947     48.000000
 -0.342105  0.289474  0.078947     48.000000
 -0.315789  0.289474  0.078947     48.000000
 -0.289474  0.289474  0.078947     48.000000
 -0.263158  0.289474  0.078947     48.000000
 -0.236842  0.289474  0.078947     48.000000
 -0.210526  0.289474  0.078947     24.000000
  0.394737  0.315789  0.078947     24.000000
  0.421053  0.315789  0.078947     48.000000
  0.447368  0.315789  0.078947     48.000000
  0.473684  0.315789  0.078947     48.000000
  0.500000  0.315789  0.078947     48.000000
 -0.473684  0.315789  0.078947     48.000000
 -0.447368  0.315789  0.078947     48.000000
 -0.421053  0.315789  0.078947     48.000000
 -0.394737  0.315789  0.078947     48.000000
 -0.368421  0.315789  0.078947     48.000000
 -0.342105  0.315789  0.078947     48.000000
 -0.315789  0.315789  0.078947     48.000000
 -0.289474  0.315789  0.078947     48.000000
 -0.263158  0.315789  0.078947     48.000000
 -0.236842  0.315789  0.078947     24.000000
  0.421053  0.342105  0.078947     24.000000
  0.447368  0.342105  0.078947     48.000000
  0.473684  0.342105  0.078947     48.000000
  0.500000  0.342105  0.078947     48.000000
 -0.473684  0.342105  0.078947     48.000000
 -0.447368  0.342105  0.078947     48.000000
 -0.421053  0.342105  0.078947     48.000000
 -0.394737  0.342105  0.078947     48.000000
 -0.368421  0.342105  0.078947     48.000000
 -0.342105  0.342105  0.078947     48.000000
 -0.315789  0.342105  0.078947     48.000000
 -0.289474  0.342105  0.078947     48.000000
 -0.263158  0.342105  0.078947     24.000000
  0.447368  0.368421  0.078947     24.000000
  0.473684  0.368421  0.078947     48.000000
  0.500000  0.368421  0.078947     48.000000
 -0.473684  0.368421  0.078947     48.000000
 -0.447368  0.368421  0.078947     48.000000
 -0.421053  0.368421  0.078947     48.000000
 -0.394737  0.368421  0.078947     48.000000
 -0.368421  0.368421  0.078947     48.000000
 -0.342105  0.368421  0.078947     48.000000
 -0.315789  0.368421  0.078947     48.000000
 -0.289474  0.368421  0.078947     24.000000
  0.473684  0.394737  0.078947     24.000000
  0.500000  0.394737  0.078947     48.000000
 -0.473684  0.394737  0.078947     48.000000
 -0.447368  0.394737  0.078947     48.000000
 -0.421053  0.394737  0.078947     48.000000
 -0.394737  0.394737  0.078947     48.000000
 -0.368421  0.394737  0.078947     48.000000
 -0.342105  0.394737  0.078947     48.000000
 -0.315789  0.394737  0.078947     24.000000
  0.500000  0.421053  0.078947     24.000000
 -0.473684  0.421053  0.078947     48.000000
 -0.447368  0.421053  0.078947     48.000000
 -0.421053  0.421053  0.078947     48.000000
 -0.394737  0.421053  0.078947     48.000000
 -0.368421  0.421053  0.078947     48.000000
 -0.342105  0.421053  0.078947     24.000000
 -0.473684  0.447368  0.078947     24.000000
 -0.447368  0.447368  0.078947     48.000000
 -0.421053  0.447368  0.078947     48.000000
 -0.394737  0.447368  0.078947     48.000000
 -0.368421  0.447368  0.078947     24.000000
 -0.447368  0.473684  0.078947     24.000000
 -0.421053  0.473684  0.078947     48.000000
 -0.394737  0.473684  0.078947     24.000000
 -0.421053  0.500000  0.078947     12.000000
  0.315789  0.210526  0.105263     24.000000
  0.342105  0.210526  0.105263     48.000000
  0.368421  0.210526  0.105263     48.000000
  0.394737  0.210526  0.105263     48.000000
  0.421053  0.210526  0.105263     48.000000
  0.447368  0.210526  0.105263     48.000000
  0.473684  0.210526  0.105263     48.000000
  0.500000  0.210526  0.105263     48.000000
 -0.473684  0.210526  0.105263     48.000000
 -0.447368  0.210526  0.105263     48.000000
 -0.421053  0.210526  0.105263     48.000000
 -0.394737  0.210526  0.105263     24.000000
  0.342105  0.236842  0.105263     24.000000
  0.368421  0.236842  0.105263     48.000000
  0.394737  0.236842  0.105263     48.000000
  0.421053  0.236842  0.105263     48.000000
  0.447368  0.236842  0.105263     48.000000
  0.473684  0.236842  0.105263     48.000000
  0.500000  0.236842  0.105263     48.000000
 -0.473684  0.236842  0.105263     48.000000
 -0.447368  0.236842  0.105263     48.000000
 -0.421053  0.236842  0.105263     48.000000
 -0.394737  0.236842  0.105263     48.000000
 -0.368421  0.236842  0.105263     48.000000
 -0.342105  0.236842  0.105263     48.000000
 -0.315789  0.236842  0.105263     48.000000
 -0.289474  0.236842  0.105263     48.000000
 -0.263158  0.236842  0.105263     48.000000
 -0.236842  0.236842  0.105263     48.000000
 -0.210526  0.236842  0.105263     48.000000
 -0.184211  0.236842  0.105263     48.000000
 -0.157895  0.236842  0.105263     48.000000
 -0.131579  0.236842  0.105263     24.000000
  0.368421  0.263158  0.105263     24.000000
  0.394737  0.263158  0.105263     48.000000
  0.421053  0.263158  0.105263     48.000000
  0.447368  0.263158  0.105263     48.000000
  0.473684  0.263158  0.105263     48.000000
  0.500000  0.263158  0.105263     48.000000
 -0.473684  0.263158  0.105263     48.000000
 -0.447368  0.263158  0.105263     48.000000
 -0.421053  0.263158  0.105263     48.000000
 -0.394737  0.263158  0.105263     48.000000
 -0.368421  0.263158  0.105263     48.000000
 -0.342105  0.263158  0.105263     48.000000
 -0.315789  0.263158  0.105263     48.000000
 -0.289474  0.263158  0.105263     48.000000
 -0.263158  0.263158  0.105263     48.000000
 -0.236842  0.263158  0.105263     48.000000
 -0.210526  0.263158  0.105263     48.000000
 -0.184211  0.263158  0.105263     48.000000
 -0.157895  0.263158  0.105263     24.000000
  0.394737  0.289474  0.105263     24.000000
  0.421053  0.289474  0.105263     48.000000
  0.447368  0.289474  0.105263     48.000000
  0.473684  0.289474  0.105263     48.000000
  0.500000  0.289474  0.105263     48.000000
 -0.473684  0.289474  0.105263     48.000000
 -0.447368  0.289474  0.105263     48.000000
 -0.421053  0.289474  0.105263     48.000000
 -0.394737  0.289474  0.105263     48.000000
 -0.368421  0.289474  0.105263     48.000000
 -0.342105  0.289474  0.105263     48.000000
 -0.315789  0.289474  0.105263     48.000000
 -0.289474  0.289474  0.105263     48.000000
 -0.263158  0.289474  0.105263     48.000000
 -0.236842  0.289474  0.105263     48.000000
 -0.210526  0.289474  0.105263     48.000000
 -0.184211  0.289474  0.105263     24.000000
  0.421053  0.315789  0.105263     24.000000
  0.447368  0.315789  0.105263     48.000000
  0.473684  0.315789  0.105263     48.000000
  0.500000  0.315789  0.105263     48.000000
 -0.473684  0.315789  0.105263     48.000000
 -0.447368  0.315789  0.105263     48.000000
 -0.421053  0.315789  0.105263     48.000000
 -0.394737  0.315789  0.105263     48.000000
 -0.368421  0.315789  0.105263     48.000000
 -0.342105  0.315789  0.105263     48.000000
 -0.315789  0.315789  0.105263     48.000000
 -0.289474  0.315789  0.105263     48.000000
 -0.263158  0.315789  0.105263     48.000000
 -0.236842  0.315789  0.105263     48.000000
 -0.210526  0.315789  0.105263     24.000000
  0.447368  0.342105  0.105263     24.000000
  0.473684  0.342105  0.105263     48.000000
  0.500000  0.342105  0.105263     48.000000
 -0.473684  0.342105  0.105263     48.000000
 -0.447368  0.342105  0.105263     48.000000
 -0.421053  0.342105  0.105263     48.000000
 -0.394737  0.342105  0.105263     48.000000
 -0.368421  0.342105  0.105263     48.000000
 -0.342105  0.342105  0.105263     48.000000
 -0.315789  0.342105  0.105263     48.000000
 -0.289474  0.342105  0.105263     48.000000
 -0.263158  0.342105  0.105263     48.000000
 -0.236842  0.342105  0.105263     24.000000
  0.473684  0.368421  0.105263     24.000000
  0.500000  0.368421  0.105263     48.000000
 -0.473684  0.368421  0.105263     48.000000
 -0.447368  0.368421  0.105263     48.000000
 -0.421053  0.368421  0.105263     48.000000
 -0.394737  0.368421  0.105263     48.000000
 -0.368421  0.368421  0.105263     48.000000
 -0.342105  0.368421  0.105263     48.000000
 -0.315789  0.368421  0.105263     48.000000
 -0.289474  0.368421  0.105263     48.000000
 -0.263158  0.368421  0.105263     24.000000
  0.500000  0.394737  0.105263     24.000000
 -0.473684  0.394737  0.105263     48.000000
 -0.447368  0.394737  0.105263     48.000000
 -0.421053  0.394737  0.105263     48.000000
 -0.394737  0.394737  0.105263     48.000000
 -0.368421  0.394737  0.105263     48.000000
 -0.342105  0.394737  0.105263     48.000000
 -0.315789  0.394737  0.105263     48.000000
 -0.289474  0.394737  0.105263     24.000000
 -0.473684  0.421053  0.105263     24.000000
 -0.447368  0.421053  0.105263     48.000000
 -0.421053  0.421053  0.105263     48.000000
 -0.394737  0.421053  0.105263     48.000000
 -0.368421  0.421053  0.105263     48.000000
 -0.342105  0.421053  0.105263     48.000000
 -0.315789  0.421053  0.105263     24.000000
 -0.447368  0.447368  0.105263     24.000000
 -0.421053  0.447368  0.105263     48.000000
 -0.394737  0.447368  0.105263     48.000000
 -0.368421  0.447368  0.105263     48.000000
 -0.342105  0.447368  0.105263     24.000000
 -0.421053  0.473684  0.105263     24.000000
 -0.394737  0.473684  0.105263     48.000000
 -0.368421  0.473684  0.105263     24.000000
 -0.394737  0.500000  0.105263     12.000000
  0.394737  0.263158  0.131579     24.000000
  0.421053  0.263158  0.131579     48.000000
  0.447368  0.263158  0.131579     48.000000
  0.473684  0.263158  0.131579     48.000000
  0.500000  0.263158  0.131579     48.000000
 -0.473684  0.263158  0.131579     48.000000
 -0.447368  0.263158  0.131579     48.000000
 -0.421053  0.263158  0.131579     48.000000
 -0.394737  0.263158  0.131579     48.000000
 -0.368421  0.263158  0.131579     24.000000
  0.421053  0.289474  0.131579     24.000000
  0.447368  0.289474  0.131579     48.000000
  0.473684  0.289474  0.131579     48.000000
  0.500000  0.289474  0.131579     48.000000
 -0.473684  0.289474  0.131579     48.000000
 -0.447368  0.289474  0.131579     48.000000
 -0.421053  0.289474  0.131579     48.000000
 -0.394737  0.289474  0.131579     48.000000
 -0.368421  0.289474  0.131579     48.000000
 -0.342105  0.289474  0.131579     48.000000
 -0.315789  0.289474  0.131579     48.000000
 -0.289474  0.289474  0.131579     48.000000
 -0.263158  0.289474  0.131579     48.000000
 -0.236842  0.289474  0.131579     48.000000
 -0.210526  0.289474  0.131579     48.000000
 -0.184211  0.289474  0.131579     48.000000
 -0.157895  0.289474  0.131579     24.000000
  0.447368  0.315789  0.131579     24.000000
  0.473684  0.315789  0.131579     48.000000
  0.500000  0.315789  0.131579     48.000000
 -0.473684  0.315789  0.131579     48.000000
 -0.447368  0.315789  0.131579     48.000000
 -0.421053  0.315789  0.131579     48.000000
 -0.394737  0.315789  0.131579     48.000000
 -0.368421  0.315789  0.131579     48.000000
 -0.342105  0.315789  0.131579     48.000000
 -0.315789  0.315789  0.131579     48.000000
 -0.289474  0.315789  0.131579     48.000000
 -0.263158  0.315789  0.131579     48.000000
 -0.236842  0.315789  0.131579     48.000000
 -0.210526  0.315789  0.131579     48.000000
 -0.184211  0.315789  0.131579     24.000000
  0.473684  0.342105  0.131579     24.000000
  0.500000  0.342105  0.131579     48.000000
 -0.473684  0.342105  0.131579     48.000000
 -0.447368  0.342105  0.131579     48.000000
 -0.421053  0.342105  0.131579     48.000000
 -0.394737  0.342105  0.131579     48.000000
 -0.368421  0.342105  0.131579     48.000000
 -0.342105  0.342105  0.131579     48.000000
 -0.315789  0.342105  0.131579     48.000000
 -0.289474  0.342105  0.131579     48.000000
 -0.263158  0.342105  0.131579     48.000000
 -0.236842  0.342105  0.131579     48.000000
 -0.210526  0.342105  0.131579     24.000000
  0.500000  0.368421  0.131579     24.000000
 -0.473684  0.368421  0.131579     48.000000
 -0.447368  0.368421  0.131579     48.000000
 -0.421053  0.368421  0.131579     48.000000
 -0.394737  0.368421  0.131579     48.000000
 -0.368421  0.368421  0.131579     48.000000
 -0.342105  0.368421  0.131579     48.000000
 -0.315789  0.368421  0.131579     48.000000
 -0.289474  0.368421  0.131579     48.000000
 -0.263158  0.368421  0.131579     48.000000
 -0.236842  0.368421  0.131579     24.000000
 -0.473684  0.394737  0.131579     24.000000
 -0.447368  0.394737  0.131579     48.000000
 -0.421053  0.394737  0.131579     48.000000
 -0.394737  0.394737  0.131579     48.000000
 -0.368421  0.394737  0.131579     48.000000
 -0.342105  0.394737  0.131579     48.000000
 -0.315789  0.394737  0.131579     48.000000
 -0.289474  0.394737  0.131579     48.000000
 -0.263158  0.394737  0.131579     24.000000
 -0.447368  0.421053  0.131579     24.000000
 -0.421053  0.421053  0.131579     48.000000
 -0.394737  0.421053  0.131579     48.000000
 -0.368421  0.421053  0.131579     48.000000
 -0.342105  0.421053  0.131579     48.000000
 -0.315789  0.421053  0.131579     48.000000
 -0.289474  0.421053  0.131579     24.000000
 -0.421053  0.447368  0.131579     24.000000
 -0.394737  0.447368  0.131579     48.000000
 -0.368421  0.447368  0.131579     48.000000
 -0.342105  0.447368  0.131579     48.000000
 -0.315789  0.447368  0.131579     24.000000
 -0.394737  0.473684  0.131579     24.000000
 -0.368421  0.473684  0.131579     48.000000
 -0.342105  0.473684  0.131579     24.000000
 -0.368421  0.500000  0.131579     12.000000
  0.473684  0.315789  0.157895     24.000000
  0.500000  0.315789  0.157895     48.000000
 -0.473684  0.315789  0.157895     48.000000
 -0.447368  0.315789  0.157895     48.000000
 -0.421053  0.315789  0.157895     48.000000
 -0.394737  0.315789  0.157895     48.000000
 -0.368421  0.315789  0.157895     48.000000
 -0.342105  0.315789  0.157895     24.000000
  0.500000  0.342105  0.157895     24.000000
 -0.473684  0.342105  0.157895     48.000000
 -0.447368  0.342105  0.157895     48.000000
 -0.421053  0.342105  0.157895     48.000000
 -0.394737  0.342105  0.157895     48.000000
 -0.368421  0.342105  0.157895     48.000000
 -0.342105  0.342105  0.157895     48.000000
 -0.315789  0.342105  0.157895     48.000000
 -0.289474  0.342105  0.157895     48.000000
 -0.263158  0.342105  0.157895     48.000000
 -0.236842  0.342105  0.157895     48.000000
 -0.210526  0.342105  0.157895     48.000000
 -0.184211  0.342105  0.157895     24.000000
 -0.473684  0.368421  0.157895     24.000000
 -0.447368  0.368421  0.157895     48.000000
 -0.421053  0.368421  0.157895     48.000000
 -0.394737  0.368421  0.157895     48.000000
 -0.368421  0.368421  0.157895     48.000000
 -0.342105  0.368421  0.157895     48.000000
 -0.315789  0.368421  0.157895     48.000000
 -0.289474  0.368421  0.157895     48.000000
 -0.263158  0.368421  0.157895     48.000000
 -0.236842  0.368421  0.157895     48.000000
 -0.210526  0.368421  0.157895     24.000000
 -0.447368  0.394737  0.157895     24.000000
 -0.421053  0.394737  0.157895     48.000000
 -0.394737  0.394737  0.157895     48.000000
 -0.368421  0.394737  0.157895     48.000000
 -0.342105  0.394737  0.157895     48.000000
 -0.315789  0.394737  0.157895     48.000000
 -0.289474  0.394737  0.157895     48.000000
 -0.263158  0.394737  0.157895     48.000000
 -0.236842  0.394737  0.157895     24.000000
 -0.421053  0.421053  0.157895     24.000000
 -0.394737  0.421053  0.157895     48.000000
 -0.368421  0.421053  0.157895     48.000000
 -0.342105  0.421053  0.157895     48.000000
 -0.315789  0.421053  0.157895     48.000000
 -0.289474  0.421053  0.157895     48.000000
 -0.263158  0.421053  0.157895     24.000000
 -0.394737  0.447368  0.157895     24.000000
 -0.368421  0.447368  0.157895     48.000000
 -0.342105  0.447368  0.157895     48.000000
 -0.315789  0.447368  0.157895     48.000000
 -0.289474  0.447368  0.157895     24.000000
 -0.368421  0.473684  0.157895     24.000000
 -0.342105  0.473684  0.157895     48.000000
 -0.315789  0.473684  0.157895     24.000000
 -0.342105  0.500000  0.157895     12.000000
 -0.447368  0.368421  0.184211     24.000000
 -0.421053  0.368421  0.184211     48.000000
 -0.394737  0.368421  0.184211     48.000000
 -0.368421  0.368421  0.184211     48.000000
 -0.342105  0.368421  0.184211     48.000000
 -0.315789  0.368421  0.184211     24.000000
 -0.421053  0.394737  0.184211     24.000000
 -0.394737  0.394737  0.184211     48.000000
 -0.368421  0.394737  0.184211     48.000000
 -0.342105  0.394737  0.184211     48.000000
 -0.315789  0.394737  0.184211     48.000000
 -0.289474  0.394737  0.184211     48.000000
 -0.263158  0.394737  0.184211     48.000000
 -0.236842  0.394737  0.184211     48.000000
 -0.210526  0.394737  0.184211     24.000000
 -0.394737  0.421053  0.184211     24.000000
 -0.368421  0.421053  0.184211     48.000000
 -0.342105  0.421053  0.184211     48.000000
 -0.315789  0.421053  0.184211     48.000000
 -0.289474  0.421053  0.184211     48.000000
 -0.263158  0.421053  0.184211     48.000000
 -0.236842  0.421053  0.184211     24.000000
 -0.368421  0.447368  0.184211     24.000000
 -0.342105  0.447368  0.184211     48.000000
 -0.315789  0.447368  0.184211     48.000000
 -0.289474  0.447368  0.184211     48.000000
 -0.263158  0.447368  0.184211     24.000000
 -0.342105  0.473684  0.184211     24.000000
 -0.315789  0.473684  0.184211     48.000000
 -0.289474  0.473684  0.184211     24.000000
 -0.315789  0.500000  0.184211     12.000000
 -0.368421  0.421053  0.210526     24.000000
 -0.342105  0.421053  0.210526     48.000000
 -0.315789  0.421053  0.210526     48.000000
 -0.289474  0.421053  0.210526     24.000000
 -0.342105  0.447368  0.210526     24.000000
 -0.315789  0.447368  0.210526     48.000000
 -0.289474  0.447368  0.210526     48.000000
 -0.263158  0.447368  0.210526     48.000000
 -0.236842  0.447368  0.210526     24.000000
 -0.315789  0.473684  0.210526     24.000000
 -0.289474  0.473684  0.210526     48.000000
 -0.263158  0.473684  0.210526     24.000000
 -0.289474  0.500000  0.210526     12.000000
 -0.289474  0.473684  0.236842     24.000000
 -0.263158  0.473684  0.236842     24.000000
 -0.263158  0.500000  0.236842     12.000000
 
 Following cartesian coordinates:
            Coordinates               Weight
  0.000000  0.000000  0.000000      1.000000
 -0.026316  0.026316  0.026316      8.000000
 -0.052632  0.052632  0.052632      8.000000
 -0.078947  0.078947  0.078947      8.000000
 -0.105263  0.105263  0.105263      8.000000
 -0.131579  0.131579  0.131579      8.000000
 -0.157895  0.157895  0.157895      8.000000
 -0.184211  0.184211  0.184211      8.000000
 -0.210526  0.210526  0.210526      8.000000
 -0.236842  0.236842  0.236842      8.000000
 -0.263158  0.263158  0.263158      8.000000
 -0.289474  0.289474  0.289474      8.000000
 -0.315789  0.315789  0.315789      8.000000
 -0.342105  0.342105  0.342105      8.000000
 -0.368421  0.368421  0.368421      8.000000
 -0.394737  0.394737  0.394737      8.000000
 -0.421053  0.421053  0.421053      8.000000
 -0.447368  0.447368  0.447368      8.000000
 -0.473684  0.473684  0.473684      8.000000
 -0.500000  0.500000  0.500000      4.000000
  0.000000  0.000000  0.052632      6.000000
 -0.026316  0.026316  0.078947     24.000000
 -0.052632  0.052632  0.105263     24.000000
 -0.078947  0.078947  0.131579     24.000000
 -0.105263  0.105263  0.157895     24.000000
 -0.131579  0.131579  0.184211     24.000000
[...]
      8      23.9990      0.00000

 k-point  1407 :      -0.2368    0.3947    0.1842
  band No.  band energies     occupation 
      1      -5.4426      2.00000
      2      -1.7724      2.00000
      3       0.5336      2.00000
      4       2.7478      2.00000
      5      19.3667      0.00000
      6      19.7462      0.00000
      7      21.7336      0.00000
      8      24.5728      0.00000

 k-point  1408 :      -0.2105    0.3947    0.1842
  band No.  band energies     occupation 
      1      -5.9142      2.00000
      2      -1.3927      2.00000
      3       0.7016      2.00000
      4       3.0040      2.00000
      5      19.0833      0.00000
      6      19.6315      0.00000
      7      21.4719      0.00000
      8      24.9359      0.00000

 k-point  1409 :      -0.3947    0.4211    0.1842
  band No.  band energies     occupation 
      1      -5.5240      2.00000
      2      -1.6261      2.00000
      3       0.9951      2.00000
      4       2.3194      2.00000
      5      18.1396      0.00000
      6      19.3537      0.00000
      7      22.0316      0.00000
      8      25.2096      0.00000

 k-point  1410 :      -0.3684    0.4211    0.1842
  band No.  band energies     occupation 
      1      -5.0558      2.00000
      2      -1.9842      2.00000
      3       0.7924      2.00000
      4       2.0964      2.00000
      5      18.5734      0.00000
      6      19.7276      0.00000
      7      21.9275      0.00000
      8      24.7975      0.00000

 k-point  1411 :      -0.3421    0.4211    0.1842
  band No.  band energies     occupation 
      1      -4.6278      2.00000
      2      -2.3358      2.00000
      3       0.6097      2.00000
      4       1.9811      2.00000
      5      18.8018      0.00000
      6      20.3200      0.00000
      7      21.8715      0.00000
      8      24.2162      0.00000

 k-point  1412 :      -0.3158    0.4211    0.1842
  band No.  band energies     occupation 
      1      -4.3290      2.00000
      2      -2.5887      2.00000
      3       0.4483      2.00000
      4       1.9758      2.00000
      5      18.9504      0.00000
      6      20.8324      0.00000
      7      22.0017      0.00000
      8      23.5475      0.00000

 k-point  1413 :      -0.2895    0.4211    0.1842
  band No.  band energies     occupation 
      1      -4.3111      2.00000
      2      -2.5927      2.00000
      3       0.3278      2.00000
      4       2.0665      2.00000
      5      19.0874      0.00000
      6      20.9301      0.00000
      7      22.5077      0.00000
      8      22.8988      0.00000

 k-point  1414 :      -0.2632    0.4211    0.1842
  band No.  band energies     occupation 
      1      -4.5808      2.00000
      2      -2.3527      2.00000
      3       0.2786      2.00000
      4       2.2352      2.00000
      5      19.2323      0.00000
      6      20.6805      0.00000
      7      22.2979      0.00000
      8      23.2802      0.00000

 k-point  1415 :      -0.2368    0.4211    0.1842
  band No.  band energies     occupation 
      1      -4.9884      2.00000
      2      -2.0411      2.00000
      3       0.3369      2.00000
      4       2.4665      2.00000
      5      19.3815      0.00000
      6      20.1969      0.00000
      7      21.9363      0.00000
      8      23.9947      0.00000

 k-point  1416 :      -0.3684    0.4474    0.1842
  band No.  band energies     occupation 
      1      -4.8259      2.00000
      2      -2.1795      2.00000
      3       0.9763      2.00000
      4       1.8309      2.00000
      5      18.2484      0.00000
      6      19.0673      0.00000
      7      22.6296      0.00000
      8      24.9208      0.00000

 k-point  1417 :      -0.3421    0.4474    0.1842
  band No.  band energies     occupation 
      1      -4.3836      2.00000
      2      -2.5005      2.00000
      3       0.7837      2.00000
      4       1.6619      2.00000
      5      18.6388      0.00000
      6      19.5714      0.00000
      7      22.4948      0.00000
      8      24.3292      0.00000

 k-point  1418 :      -0.3158    0.4474    0.1842
  band No.  band energies     occupation 
      1      -4.0348      2.00000
      2      -2.7629      2.00000
      3       0.5516      2.00000
      4       1.6614      2.00000
      5      18.8158      0.00000
      6      20.3300      0.00000
      7      22.3623      0.00000
      8      23.6496      0.00000

 k-point  1419 :      -0.2895    0.4474    0.1842
  band No.  band energies     occupation 
      1      -3.9553      2.00000
      2      -2.8061      2.00000
      3       0.3510      2.00000
      4       1.7788      2.00000
      5      18.9554      0.00000
      6      21.0481      0.00000
      7      22.2730      0.00000
      8      22.9934      0.00000

 k-point  1420 :      -0.2632    0.4474    0.1842
  band No.  band energies     occupation 
      1      -4.1980      2.00000
      2      -2.5996      2.00000
      3       0.2449      2.00000
      4       1.9765      2.00000
      5      19.0967      0.00000
      6      21.1912      0.00000
      7      22.5293      0.00000
      8      22.5670      0.00000

 k-point  1421 :      -0.3421    0.4737    0.1842
  band No.  band energies     occupation 
      1      -4.1266      2.00000
      2      -2.7872      2.00000
      3       1.0392      2.00000
      4       1.4560      2.00000
      5      18.3948      0.00000
      6      18.8058      0.00000
      7      23.2563      0.00000
      8      24.4495      0.00000

 k-point  1422 :      -0.3158    0.4737    0.1842
  band No.  band energies     occupation 
      1      -3.7398      2.00000
      2      -3.0612      2.00000
      3       0.8176      2.00000
      4       1.3999      2.00000
      5      18.6880      0.00000
      6      19.4665      0.00000
      7      23.1052      0.00000
      8      23.7600      0.00000

 k-point  1423 :      -0.2895    0.4737    0.1842
  band No.  band energies     occupation 
      1      -3.6721      2.00000
      2      -3.0667      2.00000
      3       0.5340      2.00000
      4       1.5489      2.00000
      5      18.8213      0.00000
      6      20.3214      0.00000
      7      22.7997      0.00000
      8      23.1925      0.00000

 k-point  1424 :      -0.3158    0.5000    0.1842
  band No.  band energies     occupation 
      1      -3.4413      2.00000
      2      -3.4413      2.00000
      3       1.1951      2.00000
      4       1.1951      2.00000
      5      18.5807      0.00000
      6      18.5807      0.00000
      7      23.8761      0.00000
      8      23.8761      0.00000

 k-point  1425 :      -0.3684    0.4211    0.2105
  band No.  band energies     occupation 
      1      -5.2604      2.00000
      2      -1.8146      2.00000
      3       0.6384      2.00000
      4       2.3582      2.00000
      5      19.1600      0.00000
      6      19.8408      0.00000
      7      21.5067      0.00000
      8      24.6851      0.00000

 k-point  1426 :      -0.3421    0.4211    0.2105
  band No.  band energies     occupation 
      1      -4.8134      2.00000
      2      -2.1528      2.00000
      3       0.5042      2.00000
      4       2.1259      2.00000
      5      19.5139      0.00000
      6      20.0632      0.00000
      7      21.6474      0.00000
      8      24.0978      0.00000

 k-point  1427 :      -0.3158    0.4211    0.2105
  band No.  band energies     occupation 
      1      -4.4456      2.00000
      2      -2.4642      2.00000
      3       0.4404      2.00000
      4       1.9759      2.00000
      5      19.5689      0.00000
      6      20.3775      0.00000
      7      22.0257      0.00000
      8      23.3994      0.00000

 k-point  1428 :      -0.2895    0.4211    0.2105
  band No.  band energies     occupation 
      1      -4.2872      2.00000
      2      -2.6056      2.00000
      3       0.4226      2.00000
      4       1.9238      2.00000
      5      19.5737      0.00000
      6      20.4840      0.00000
      7      22.5312      0.00000
      8      22.7942      0.00000

 k-point  1429 :      -0.3421    0.4474    0.2105
  band No.  band energies     occupation 
      1      -4.6044      2.00000
      2      -2.2738      2.00000
      3       0.6578      2.00000
      4       1.7931      2.00000
      5      19.2632      0.00000
      6      19.8342      0.00000
      7      21.8424      0.00000
      8      24.2071      0.00000

 k-point  1430 :      -0.3158    0.4474    0.2105
  band No.  band energies     occupation 
      1      -4.2024      2.00000
      2      -2.5680      2.00000
      3       0.5578      2.00000
      4       1.6022      2.00000
      5      19.5918      0.00000
      6      20.2897      0.00000
      7      21.8218      0.00000
      8      23.4992      0.00000

 k-point  1431 :      -0.2895    0.4474    0.2105
  band No.  band energies     occupation 
      1      -3.9618      2.00000
      2      -2.7569      2.00000
      3       0.4701      2.00000
      4       1.5544      2.00000
      5      19.6995      0.00000
      6      20.7456      0.00000
      7      22.0127      0.00000
      8      22.7814      0.00000

 k-point  1432 :      -0.2632    0.4474    0.2105
  band No.  band energies     occupation 
      1      -4.0524      2.00000
      2      -2.6752      2.00000
      3       0.4068      2.00000
      4       1.6450      2.00000
      5      19.7889      0.00000
      6      20.7244      0.00000
      7      22.1115      0.00000
      8      22.6532      0.00000

 k-point  1433 :      -0.2368    0.4474    0.2105
  band No.  band energies     occupation 
      1      -4.3892      2.00000
      2      -2.4173      2.00000
      3       0.4064      2.00000
      4       1.8449      2.00000
      5      19.8679      0.00000
      6      20.2829      0.00000
      7      21.7857      0.00000
      8      23.3792      0.00000

 k-point  1434 :      -0.3158    0.4737    0.2105
  band No.  band energies     occupation 
      1      -3.9615      2.00000
      2      -2.7841      2.00000
      3       0.7718      2.00000
      4       1.3339      2.00000
      5      19.3930      0.00000
      6      19.7048      0.00000
      7      22.3719      0.00000
      8      23.6152      0.00000

 k-point  1435 :      -0.2895    0.4737    0.2105
  band No.  band energies     occupation 
      1      -3.6495      2.00000
      2      -3.0122      2.00000
      3       0.6709      2.00000
      4       1.2415      2.00000
      5      19.6349      0.00000
      6      20.3597      0.00000
      7      22.2596      0.00000
      8      22.8746      0.00000

 k-point  1436 :      -0.2632    0.4737    0.2105
  band No.  band energies     occupation 
      1      -3.7199      2.00000
      2      -2.9293      2.00000
      3       0.5020      2.00000
      4       1.3855      2.00000
      5      19.7333      0.00000
      6      20.9314      0.00000
      7      22.2067      0.00000
      8      22.3204      0.00000

 k-point  1437 :      -0.2895    0.5000    0.2105
  band No.  band energies     occupation 
      1      -3.3495      2.00000
      2      -3.3495      2.00000
      3       0.9937      2.00000
      4       0.9937      2.00000
      5      19.5448      0.00000
      6      19.5448      0.00000
      7      22.9847      0.00000
      8      22.9847      0.00000

 k-point  1438 :      -0.2895    0.4737    0.2368
  band No.  band energies     occupation 
      1      -3.8202      2.00000
      2      -2.8316      2.00000
      3       0.5855      2.00000
      4       1.3097      2.00000
      5      20.2369      0.00000
      6      20.3605      0.00000
      7      21.8364      0.00000
      8      22.7417      0.00000

 k-point  1439 :      -0.2632    0.4737    0.2368
  band No.  band energies     occupation 
      1      -3.6162      2.00000
      2      -2.9957      2.00000
      3       0.6209      2.00000
      4       1.1853      2.00000
      5      20.2546      0.00000
      6      20.7083      0.00000
      7      21.9882      0.00000
      8      22.2121      0.00000

 k-point  1440 :      -0.2632    0.5000    0.2368
  band No.  band energies     occupation 
      1      -3.2980      2.00000
      2      -3.2980      2.00000
      3       0.8859      2.00000
      4       0.8859      2.00000
      5      20.3809      0.00000
      6      20.3809      0.00000
      7      22.1820      0.00000
      8      22.1820      0.00000


--------------------------------------------------------------------------------------------------------


 soft charge-density along one line, spin component           1
         0         1         2         3         4         5         6         7         8         9
 total charge-density along one line
 
 pseudopotential strength for first ion, spin component:           1
  9.631  12.787  -0.000   0.000   0.000   0.000  -0.000  -0.000
 12.787  16.977  -0.000   0.000   0.000   0.000  -0.000  -0.000
 -0.000  -0.000  -3.648   0.000   0.000   7.084  -0.000  -0.000
  0.000   0.000   0.000  -3.648   0.000  -0.000   7.084  -0.000
  0.000   0.000   0.000   0.000  -3.648  -0.000  -0.000   7.084
  0.000   0.000   7.084  -0.000  -0.000 -15.986   0.000   0.000
 -0.000  -0.000  -0.000   7.084  -0.000   0.000 -15.986   0.000
 -0.000  -0.000  -0.000  -0.000   7.084   0.000   0.000 -15.986
 total augmentation occupancy for first ion, spin component:           1
  8.080  -3.651   0.000   0.000   0.000   0.000   0.000   0.000
 -3.651   1.728   0.000   0.000   0.000   0.000   0.000   0.000
  0.000   0.000   1.573  -0.000   0.000   0.143   0.000  -0.000
  0.000   0.000   0.000   1.573   0.000   0.000   0.143   0.000
  0.000  -0.000  -0.000   0.000   1.573   0.000  -0.000   0.143
  0.000   0.000   0.143   0.000  -0.000   0.015  -0.000   0.000
  0.000  -0.000  -0.000   0.143   0.000   0.000   0.015  -0.000
  0.000  -0.000  -0.000   0.000   0.143   0.000  -0.000   0.015


------------------------ aborting loop because EDIFF is reached ----------------------------------------


 


 total charge     
 
# of ion       s       p       d       tot
------------------------------------------
    1        0.840   1.716   0.000   2.556
    2        0.840   1.716   0.000   2.556
--------------------------------------------------
tot          1.680   3.433   0.000   5.112
 
    CHARGE:  cpu time    0.0748: real time    0.0748
    FORLOC:  cpu time    0.0002: real time    0.0002
    FORNL :  cpu time    0.1188: real time    0.1188
    STRESS:  cpu time   12.3988: real time   12.4003
    FORCOR:  cpu time    0.0159: real time    0.0159
    FORHAR:  cpu time    0.0009: real time    0.0009
    MIXING:  cpu time    0.0010: real time    0.0010
    OFIELD:  cpu time    0.0000: real time    0.0000

  FORCE on cell =-STRESS in cart. coord.  units (eV):
  Direction    XX          YY          ZZ          XY          YZ          ZX
  --------------------------------------------------------------------------------------
  Alpha Z    28.34784    28.34784    28.34784
  Ewald    -115.15664  -115.15664  -115.15664     0.00000     0.00000    -0.00000
  Hartree     8.87112     8.87112     8.87112     0.00000     0.00000     0.00000
  E(xc)     -30.34645   -30.61468   -30.36458     0.14748    -0.02840     0.06724
  Local     -12.22512   -12.22512   -12.22512    -0.00000    -0.00000    -0.00000
  n-local    -5.61313    -4.89160    -6.05434    -0.56113     0.09158    -0.04533
  augment    -0.87065    -0.87065    -0.87065     0.00000     0.00000     0.00000
  Kinetic   129.07241   122.70581   126.78244     5.17224    -1.39437     1.91949
  Fock        0.00000     0.00000     0.00000     0.00000     0.00000     0.00000
  -------------------------------------------------------------------------------------
  Total      -0.80815    -0.80815    -0.80815    -0.00000    -0.00000    -0.00000
  in kB    -111.70495  -111.70495  -111.70495    -0.00000    -0.00000    -0.00000
  external pressure =     -111.70 kB  Pullay stress =        0.00 kB


 VOLUME and BASIS-vectors are now :
 -----------------------------------------------------------------------------
  energy-cutoff  :      800.00
  volume of cell :       11.59
      direct lattice vectors                 reciprocal lattice vectors
     0.000000000  1.796249774  1.796249774    -0.278357725  0.278357725  0.278357725
     1.796249774  0.000000000  1.796249774     0.278357725 -0.278357725  0.278357725
     1.796249774  1.796249774  0.000000000     0.278357725  0.278357725 -0.278357725

  length of vectors
     2.540280791  2.540280791  2.540280791     0.482129722  0.482129722  0.482129722


 FORCES acting on ions
    electron-ion (+dipol)            ewald-force                    non-local-force                 convergence-correction
 -----------------------------------------------------------------------------------------------
   0.110E-07 0.110E-07 0.926E-08   -.160E-15 0.214E-14 -.448E-14   0.194E-15 0.118E-15 0.118E-15   0.109E-08 0.109E-08 0.109E-08
   -.110E-07 -.110E-07 -.926E-08   0.891E-16 -.221E-14 0.299E-14   -.257E-15 -.132E-15 -.198E-15   -.109E-08 -.109E-08 -.109E-08
 -----------------------------------------------------------------------------------------------
   0.186E-12 0.394E-12 0.139E-12   -.712E-16 -.646E-16 -.149E-14   -.625E-16 -.139E-16 -.798E-16   -.200E-14 -.448E-14 -.270E-14
 
 
 POSITION                                       TOTAL-FORCE (eV/Angst)
 -----------------------------------------------------------------------------------
      3.14344      3.14344      3.14344        -0.000000     -0.000000     -0.000000
      0.44906      0.44906      0.44906         0.000000      0.000000      0.000000
 -----------------------------------------------------------------------------------
    total drift:                                0.000000      0.000000      0.000000


--------------------------------------------------------------------------------------------------------



  FREE ENERGIE OF THE ION-ELECTRON SYSTEM (eV)
  ---------------------------------------------------
  free  energy   TOTEN  =       -19.66533079 eV

  energy  without entropy=      -19.66533079  energy(sigma->0) =      -19.66533079
 


--------------------------------------------------------------------------------------------------------


    POTLOK:  cpu time    0.3721: real time    0.3721


--------------------------------------------------------------------------------------------------------


     LOOP+:  cpu time   88.1669: real time   88.2706
    4ORBIT:  cpu time    0.0000: real time    0.0000
 


 total charge     
 
# of ion       s       p       d       tot
------------------------------------------
    1        0.840   1.716   0.000   2.556
    2        0.840   1.716   0.000   2.556
--------------------------------------------------
tot          1.680   3.433   0.000   5.112
 
 BZINTS: Fermi energy:   13.671346;    8.000000 electrons
         Band energy: 0.112126E+00;  BLOECHL correction:    0.000000

 total amount of memory used by VASP MPI-rank0    43610. kBytes
=======================================================================

   base      :      30000. kBytes
   nonl-proj :       5715. kBytes
   fftplans  :        918. kBytes
   grid      :        523. kBytes
   one-center:          3. kBytes
   wavefun   :       6451. kBytes
 
  
  
 General timing and accounting informations for this job:
 ========================================================
  
                  Total CPU time used (sec):       92.453
                            User time (sec):       92.123
                          System time (sec):        0.330
                         Elapsed time (sec):       92.877
  
                   Maximum memory used (kb):      104892.
                   Average memory used (kb):           0.
  
                          Minor page faults:        34576
                          Major page faults:            8
                 Voluntary context switches:         1568
