 vasp.6.1.2 22Jul20 (build Mar 11 2021 17:42:27) complex                        
  
 executed on             LinuxIFC date 2021.03.19  16:26:50
 running on   40 total cores
 distrk:  each k-point on   20 cores,    2 groups
 distr:  one band on NCORE=  10 cores,    2 groups


--------------------------------------------------------------------------------------------------------


 INCAR:
 POTCAR:    PAW_PBE C 08Apr2002                   
 POTCAR:    PAW_PBE C 08Apr2002                   
   VRHFIN =C: s2p2                                                                                  
   LEXCH  = PE                                                                                      
   EATOM  =   147.1560 eV,   10.8157 Ry                                                             
                                                                                                    
   TITEL  = PAW_PBE C 08Apr2002                                                                     
   LULTRA =        F    use ultrasoft PP ?                                                          
   IUNSCR =        1    unscreen: 0-lin 1-nonlin 2-no                                               
   RPACOR =    1.200    partial core radius                                                         
   POMASS =   12.011; ZVAL   =    4.000    mass and valenz                                          
   RCORE  =    1.500    outmost cutoff radius                                                       
   RWIGS  =    1.630; RWIGS  =    0.863    wigner-seitz radius (au A)                               
   ENMAX  =  400.000; ENMIN  =  300.000 eV                                                          
   ICORE  =        2    local potential                                                             
   LCOR   =        T    correct aug charges                                                         
   LPAW   =        T    paw PP                                                                      
   EAUG   =  644.873                                                                                
   DEXC   =    0.000                                                                                
   RMAX   =    1.529    core radius for proj-oper                                                   
   RAUG   =    1.300    factor for augmentation sphere                                              
   RDEP   =    1.501    radius for radial grids                                                     
   RDEPT  =    1.300    core radius for aug-charge                                                  
                                                                                                    
   Atomic configuration                                                                             
    4 entries                                                                                       
     n  l   j            E        occ.                                                              
     1  0  0.50      -273.3789   2.0000                                                             
     2  0  0.50       -13.7508   2.0000                                                             
     2  1  0.50        -5.2854   2.0000                                                             
     3  2  1.50        -5.4423   0.0000                                                             
   Description                                                                                      
     l       E           TYP  RCUT    TYP  RCUT                                                     
     0    -13.7508458     23  1.200                                                                 
     0     -8.2022199     23  1.200                                                                 
     1     -5.2854383     23  1.500                                                                 
     1     34.0145650     23  1.500                                                                 
     2     -5.4423304      7  1.500                                                                 
  local pseudopotential read in
  partial core-charges read in
  partial kinetic energy density read in
  atomic valenz-charges read in
  non local Contribution for L=           0  read in
    real space projection operators read in
  non local Contribution for L=           0  read in
    real space projection operators read in
  non local Contribution for L=           1  read in
    real space projection operators read in
  non local Contribution for L=           1  read in
    real space projection operators read in
    PAW grid and wavefunctions read in
 
   number of l-projection  operators is LMAX  =           4
   number of lm-projection operators is LMMAX =           8
 
  PAW_PBE C 08Apr2002                   :
 energy of atom  1       EATOM= -147.1560
 kinetic energy error for atom=    0.0016 (will be added to EATOM!!)
 
 
 POSCAR: carbon
  positions in direct lattice
  No initial velocities read in

 METAGGA = R2SCA    LMAXTAU =  6    LMIXTAU =  T

 exchange correlation table for  LEXCH =        8
   RHO(1)=    0.500       N(1)  =     2000
   RHO(2)=  100.500       N(2)  =     4000
 


--------------------------------------------------------------------------------------------------------


 ion  position               nearest neighbor table
   1  0.875  0.875  0.875-   2 1.63   2 1.63   2 1.63   2 1.63
   2  0.125  0.125  0.125-   1 1.63   1 1.63   1 1.63   1 1.63
 
  LATTYP: Found a face centered cubic cell.
 ALAT       =     3.7530000000
  
  Lattice vectors:
  
 A1 = (   0.0000000000,   1.8765000000,   1.8765000000)
 A2 = (   1.8765000000,   0.0000000000,   1.8765000000)
 A3 = (   1.8765000000,   1.8765000000,   0.0000000000)


Analysis of symmetry for initial positions (statically):
=====================================================================
 Subroutine PRICEL returns:
 Original cell was already a primitive cell.
 

 Routine SETGRP: Setting up the symmetry group for a 
 face centered cubic supercell.


 Subroutine GETGRP returns: Found 48 space group operations
 (whereof 12 operations were pure point group operations)
 out of a pool of 48 trial point group operations.


The static configuration has the point symmetry D_3d.
 The point group associated with its full space group is O_h .


Analysis of symmetry for dynamics (positions and initial velocities):
=====================================================================
 Subroutine PRICEL returns:
 Original cell was already a primitive cell.
 

 Routine SETGRP: Setting up the symmetry group for a 
 face centered cubic supercell.


 Subroutine GETGRP returns: Found 48 space group operations
 (whereof 12 operations were pure point group operations)
 out of a pool of 48 trial point group operations.


The dynamic configuration has the point symmetry D_3d.
 The point group associated with its full space group is O_h .


 Subroutine INISYM returns: Found 48 space group operations
 (whereof 12 operations are pure point group operations),
 and found     1 'primitive' translations


----------------------------------------------------------------------------------------

                                     Primitive cell                                     

  volume of cell :      13.2153

  direct lattice vectors                    reciprocal lattice vectors
     0.000000000  1.876500000  1.876500000    -0.266453504  0.266453504  0.266453504
     1.876500000  0.000000000  1.876500000     0.266453504 -0.266453504  0.266453504
     1.876500000  1.876500000  0.000000000     0.266453504  0.266453504 -0.266453504

  length of vectors
     2.653771750  2.653771750  2.653771750     0.461511007  0.461511007  0.461511007

  position of ions in fractional coordinates (direct lattice)
     0.875000000  0.875000000  0.875000000
     0.125000000  0.125000000  0.125000000

  ion indices of the primitive-cell ions
   primitive index   ion index
                 1           1
                 2           2

----------------------------------------------------------------------------------------

 
 

Automatic generation of k-mesh.
 generate k-points for:   37   37   37
Space group operators:
 irot       det(A)        alpha          n_x          n_y          n_z        tau_x        tau_y        tau_z
    1     1.000000     0.000001     1.000000     0.000000     0.000000     0.000000     0.000000     0.000000
    2    -1.000000     0.000001     1.000000     0.000000     0.000000     0.000000     0.000000     0.000000
    3     1.000000   120.000000    -0.577350    -0.577350    -0.577350     0.000000     0.000000     0.000000
    4    -1.000000   120.000000    -0.577350    -0.577350    -0.577350     0.000000     0.000000     0.000000
    5     1.000000   120.000000     0.577350     0.577350     0.577350     0.000000     0.000000     0.000000
    6    -1.000000   120.000000     0.577350     0.577350     0.577350     0.000000     0.000000     0.000000
    7     1.000000   180.000000     0.000000    -0.707107     0.707107     0.000000     0.000000     0.000000
    8    -1.000000   180.000000     0.000000    -0.707107     0.707107     0.000000     0.000000     0.000000
    9     1.000000   180.000000     0.707107    -0.707107     0.000000     0.000000     0.000000     0.000000
   10    -1.000000   180.000000     0.707107    -0.707107     0.000000     0.000000     0.000000     0.000000
   11     1.000000   180.000000     0.707107     0.000000    -0.707107     0.000000     0.000000     0.000000
   12    -1.000000   180.000000     0.707107     0.000000    -0.707107     0.000000     0.000000     0.000000
   13     1.000000    90.000000     0.000000     0.000000    -1.000000    -0.500000     0.000000     0.000000
   14    -1.000000    90.000000     0.000000     0.000000    -1.000000    -0.500000     0.000000     0.000000
   15     1.000000   180.000000     0.000000     0.707107     0.707107    -0.500000     0.000000     0.000000
   16    -1.000000   180.000000     0.000000     0.707107     0.707107    -0.500000     0.000000     0.000000
   17     1.000000    90.000000     0.000000     1.000000     0.000000    -0.500000     0.000000     0.000000
   18    -1.000000    90.000000     0.000000     1.000000     0.000000    -0.500000     0.000000     0.000000
   19     1.000000   180.000000     0.000000     0.000000     1.000000     0.000000     0.000000    -0.500000
   20    -1.000000   180.000000     0.000000     0.000000     1.000000     0.000000     0.000000    -0.500000
   21     1.000000   120.000000    -0.577350     0.577350     0.577350     0.000000     0.000000    -0.500000
   22    -1.000000   120.000000    -0.577350     0.577350     0.577350     0.000000     0.000000    -0.500000
   23     1.000000   120.000000    -0.577350     0.577350    -0.577350     0.000000     0.000000    -0.500000
   24    -1.000000   120.000000    -0.577350     0.577350    -0.577350     0.000000     0.000000    -0.500000
   25     1.000000    90.000000     0.000000     0.000000     1.000000     0.000000    -0.500000     0.000000
   26    -1.000000    90.000000     0.000000     0.000000     1.000000     0.000000    -0.500000     0.000000
   27     1.000000    90.000000    -1.000000     0.000000     0.000000     0.000000    -0.500000     0.000000
   28    -1.000000    90.000000    -1.000000     0.000000     0.000000     0.000000    -0.500000     0.000000
   29     1.000000   180.000000     0.707107     0.000000     0.707107     0.000000    -0.500000     0.000000
   30    -1.000000   180.000000     0.707107     0.000000     0.707107     0.000000    -0.500000     0.000000
   31     1.000000   120.000000     0.577350    -0.577350     0.577350    -0.500000     0.000000     0.000000
   32    -1.000000   120.000000     0.577350    -0.577350     0.577350    -0.500000     0.000000     0.000000
   33     1.000000   120.000000    -0.577350    -0.577350     0.577350    -0.500000     0.000000     0.000000
   34    -1.000000   120.000000    -0.577350    -0.577350     0.577350    -0.500000     0.000000     0.000000
   35     1.000000   180.000000     1.000000     0.000000     0.000000    -0.500000     0.000000     0.000000
   36    -1.000000   180.000000     1.000000     0.000000     0.000000    -0.500000     0.000000     0.000000
   37     1.000000    90.000000     0.000000    -1.000000     0.000000     0.000000     0.000000    -0.500000
   38    -1.000000    90.000000     0.000000    -1.000000     0.000000     0.000000     0.000000    -0.500000
   39     1.000000   180.000000     0.707107     0.707107     0.000000     0.000000     0.000000    -0.500000
   40    -1.000000   180.000000     0.707107     0.707107     0.000000     0.000000     0.000000    -0.500000
   41     1.000000    90.000000     1.000000     0.000000     0.000000     0.000000     0.000000    -0.500000
   42    -1.000000    90.000000     1.000000     0.000000     0.000000     0.000000     0.000000    -0.500000
   43     1.000000   120.000000     0.577350    -0.577350    -0.577350     0.000000    -0.500000     0.000000
   44    -1.000000   120.000000     0.577350    -0.577350    -0.577350     0.000000    -0.500000     0.000000
   45     1.000000   180.000000     0.000000     1.000000     0.000000     0.000000    -0.500000     0.000000
   46    -1.000000   180.000000     0.000000     1.000000     0.000000     0.000000    -0.500000     0.000000
   47     1.000000   120.000000     0.577350     0.577350    -0.577350     0.000000    -0.500000     0.000000
   48    -1.000000   120.000000     0.577350     0.577350    -0.577350     0.000000    -0.500000     0.000000
 TETIRR: Found   6688 inequivalent tetrahedra from   303918
 
 Subroutine IBZKPT returns following result:
 ===========================================
 
 Found   1330 irreducible k-points:
 
 Following reciprocal coordinates:
            Coordinates               Weight
  0.000000  0.000000  0.000000      1.000000
  0.027027  0.000000  0.000000      8.000000
  0.054054  0.000000  0.000000      8.000000
  0.081081  0.000000  0.000000      8.000000
  0.108108  0.000000  0.000000      8.000000
  0.135135  0.000000  0.000000      8.000000
  0.162162  0.000000  0.000000      8.000000
  0.189189  0.000000  0.000000      8.000000
  0.216216  0.000000  0.000000      8.000000
  0.243243  0.000000  0.000000      8.000000
  0.270270  0.000000  0.000000      8.000000
  0.297297  0.000000  0.000000      8.000000
  0.324324  0.000000  0.000000      8.000000
  0.351351  0.000000  0.000000      8.000000
  0.378378  0.000000  0.000000      8.000000
  0.405405  0.000000  0.000000      8.000000
  0.432432  0.000000  0.000000      8.000000
  0.459459  0.000000  0.000000      8.000000
  0.486486  0.000000  0.000000      8.000000
  0.027027  0.027027  0.000000      6.000000
  0.054054  0.027027  0.000000     24.000000
  0.081081  0.027027  0.000000     24.000000
  0.108108  0.027027  0.000000     24.000000
  0.135135  0.027027  0.000000     24.000000
  0.162162  0.027027  0.000000     24.000000
  0.189189  0.027027  0.000000     24.000000
  0.216216  0.027027  0.000000     24.000000
  0.243243  0.027027  0.000000     24.000000
  0.270270  0.027027  0.000000     24.000000
  0.297297  0.027027  0.000000     24.000000
  0.324324  0.027027  0.000000     24.000000
  0.351351  0.027027  0.000000     24.000000
  0.378378  0.027027  0.000000     24.000000
  0.405405  0.027027  0.000000     24.000000
  0.432432  0.027027  0.000000     24.000000
  0.459459  0.027027  0.000000     24.000000
  0.486486  0.027027  0.000000     24.000000
 -0.486486  0.027027  0.000000     24.000000
 -0.459459  0.027027  0.000000     24.000000
 -0.432432  0.027027  0.000000     24.000000
 -0.405405  0.027027  0.000000     24.000000
 -0.378378  0.027027  0.000000     24.000000
 -0.351351  0.027027  0.000000     24.000000
 -0.324324  0.027027  0.000000     24.000000
 -0.297297  0.027027  0.000000     24.000000
 -0.270270  0.027027  0.000000     24.000000
 -0.243243  0.027027  0.000000     24.000000
 -0.216216  0.027027  0.000000     24.000000
 -0.189189  0.027027  0.000000     24.000000
 -0.162162  0.027027  0.000000     24.000000
 -0.135135  0.027027  0.000000     24.000000
 -0.108108  0.027027  0.000000     24.000000
 -0.081081  0.027027  0.000000     24.000000
 -0.054054  0.027027  0.000000     24.000000
 -0.027027  0.027027  0.000000     12.000000
  0.054054  0.054054  0.000000      6.000000
  0.081081  0.054054  0.000000     24.000000
  0.108108  0.054054  0.000000     24.000000
  0.135135  0.054054  0.000000     24.000000
  0.162162  0.054054  0.000000     24.000000
  0.189189  0.054054  0.000000     24.000000
  0.216216  0.054054  0.000000     24.000000
  0.243243  0.054054  0.000000     24.000000
  0.270270  0.054054  0.000000     24.000000
  0.297297  0.054054  0.000000     24.000000
  0.324324  0.054054  0.000000     24.000000
  0.351351  0.054054  0.000000     24.000000
  0.378378  0.054054  0.000000     24.000000
  0.405405  0.054054  0.000000     24.000000
  0.432432  0.054054  0.000000     24.000000
  0.459459  0.054054  0.000000     24.000000
  0.486486  0.054054  0.000000     24.000000
 -0.486486  0.054054  0.000000     24.000000
 -0.459459  0.054054  0.000000     24.000000
 -0.432432  0.054054  0.000000     24.000000
 -0.405405  0.054054  0.000000     24.000000
 -0.378378  0.054054  0.000000     24.000000
 -0.351351  0.054054  0.000000     24.000000
 -0.324324  0.054054  0.000000     24.000000
 -0.297297  0.054054  0.000000     24.000000
 -0.270270  0.054054  0.000000     24.000000
 -0.243243  0.054054  0.000000     24.000000
 -0.216216  0.054054  0.000000     24.000000
 -0.189189  0.054054  0.000000     24.000000
 -0.162162  0.054054  0.000000     24.000000
 -0.135135  0.054054  0.000000     24.000000
 -0.108108  0.054054  0.000000     24.000000
 -0.081081  0.054054  0.000000     24.000000
 -0.054054  0.054054  0.000000     12.000000
  0.081081  0.081081  0.000000      6.000000
  0.108108  0.081081  0.000000     24.000000
  0.135135  0.081081  0.000000     24.000000
  0.162162  0.081081  0.000000     24.000000
  0.189189  0.081081  0.000000     24.000000
  0.216216  0.081081  0.000000     24.000000
  0.243243  0.081081  0.000000     24.000000
  0.270270  0.081081  0.000000     24.000000
  0.297297  0.081081  0.000000     24.000000
  0.324324  0.081081  0.000000     24.000000
  0.351351  0.081081  0.000000     24.000000
  0.378378  0.081081  0.000000     24.000000
  0.405405  0.081081  0.000000     24.000000
  0.432432  0.081081  0.000000     24.000000
  0.459459  0.081081  0.000000     24.000000
  0.486486  0.081081  0.000000     24.000000
 -0.486486  0.081081  0.000000     24.000000
 -0.459459  0.081081  0.000000     24.000000
 -0.432432  0.081081  0.000000     24.000000
 -0.405405  0.081081  0.000000     24.000000
 -0.378378  0.081081  0.000000     24.000000
 -0.351351  0.081081  0.000000     24.000000
 -0.324324  0.081081  0.000000     24.000000
 -0.297297  0.081081  0.000000     24.000000
 -0.270270  0.081081  0.000000     24.000000
 -0.243243  0.081081  0.000000     24.000000
 -0.216216  0.081081  0.000000     24.000000
 -0.189189  0.081081  0.000000     24.000000
 -0.162162  0.081081  0.000000     24.000000
 -0.135135  0.081081  0.000000     24.000000
 -0.108108  0.081081  0.000000     24.000000
 -0.081081  0.081081  0.000000     12.000000
  0.108108  0.108108  0.000000      6.000000
  0.135135  0.108108  0.000000     24.000000
  0.162162  0.108108  0.000000     24.000000
  0.189189  0.108108  0.000000     24.000000
  0.216216  0.108108  0.000000     24.000000
  0.243243  0.108108  0.000000     24.000000
  0.270270  0.108108  0.000000     24.000000
  0.297297  0.108108  0.000000     24.000000
  0.324324  0.108108  0.000000     24.000000
  0.351351  0.108108  0.000000     24.000000
  0.378378  0.108108  0.000000     24.000000
  0.405405  0.108108  0.000000     24.000000
  0.432432  0.108108  0.000000     24.000000
  0.459459  0.108108  0.000000     24.000000
  0.486486  0.108108  0.000000     24.000000
 -0.486486  0.108108  0.000000     24.000000
 -0.459459  0.108108  0.000000     24.000000
 -0.432432  0.108108  0.000000     24.000000
 -0.405405  0.108108  0.000000     24.000000
 -0.378378  0.108108  0.000000     24.000000
 -0.351351  0.108108  0.000000     24.000000
 -0.324324  0.108108  0.000000     24.000000
 -0.297297  0.108108  0.000000     24.000000
 -0.270270  0.108108  0.000000     24.000000
 -0.243243  0.108108  0.000000     24.000000
 -0.216216  0.108108  0.000000     24.000000
 -0.189189  0.108108  0.000000     24.000000
 -0.162162  0.108108  0.000000     24.000000
 -0.135135  0.108108  0.000000     24.000000
 -0.108108  0.108108  0.000000     12.000000
  0.135135  0.135135  0.000000      6.000000
  0.162162  0.135135  0.000000     24.000000
  0.189189  0.135135  0.000000     24.000000
  0.216216  0.135135  0.000000     24.000000
  0.243243  0.135135  0.000000     24.000000
  0.270270  0.135135  0.000000     24.000000
  0.297297  0.135135  0.000000     24.000000
  0.324324  0.135135  0.000000     24.000000
  0.351351  0.135135  0.000000     24.000000
  0.378378  0.135135  0.000000     24.000000
  0.405405  0.135135  0.000000     24.000000
  0.432432  0.135135  0.000000     24.000000
  0.459459  0.135135  0.000000     24.000000
  0.486486  0.135135  0.000000     24.000000
 -0.486486  0.135135  0.000000     24.000000
 -0.459459  0.135135  0.000000     24.000000
 -0.432432  0.135135  0.000000     24.000000
 -0.405405  0.135135  0.000000     24.000000
 -0.378378  0.135135  0.000000     24.000000
 -0.351351  0.135135  0.000000     24.000000
 -0.324324  0.135135  0.000000     24.000000
 -0.297297  0.135135  0.000000     24.000000
 -0.270270  0.135135  0.000000     24.000000
 -0.243243  0.135135  0.000000     24.000000
 -0.216216  0.135135  0.000000     24.000000
 -0.189189  0.135135  0.000000     24.000000
 -0.162162  0.135135  0.000000     24.000000
 -0.135135  0.135135  0.000000     12.000000
  0.162162  0.162162  0.000000      6.000000
  0.189189  0.162162  0.000000     24.000000
  0.216216  0.162162  0.000000     24.000000
  0.243243  0.162162  0.000000     24.000000
  0.270270  0.162162  0.000000     24.000000
  0.297297  0.162162  0.000000     24.000000
  0.324324  0.162162  0.000000     24.000000
  0.351351  0.162162  0.000000     24.000000
  0.378378  0.162162  0.000000     24.000000
  0.405405  0.162162  0.000000     24.000000
  0.432432  0.162162  0.000000     24.000000
  0.459459  0.162162  0.000000     24.000000
  0.486486  0.162162  0.000000     24.000000
 -0.486486  0.162162  0.000000     24.000000
 -0.459459  0.162162  0.000000     24.000000
 -0.432432  0.162162  0.000000     24.000000
 -0.405405  0.162162  0.000000     24.000000
 -0.378378  0.162162  0.000000     24.000000
 -0.351351  0.162162  0.000000     24.000000
 -0.324324  0.162162  0.000000     24.000000
 -0.297297  0.162162  0.000000     24.000000
 -0.270270  0.162162  0.000000     24.000000
 -0.243243  0.162162  0.000000     24.000000
 -0.216216  0.162162  0.000000     24.000000
 -0.189189  0.162162  0.000000     24.000000
 -0.162162  0.162162  0.000000     12.000000
  0.189189  0.189189  0.000000      6.000000
  0.216216  0.189189  0.000000     24.000000
  0.243243  0.189189  0.000000     24.000000
  0.270270  0.189189  0.000000     24.000000
  0.297297  0.189189  0.000000     24.000000
  0.324324  0.189189  0.000000     24.000000
  0.351351  0.189189  0.000000     24.000000
  0.378378  0.189189  0.000000     24.000000
  0.405405  0.189189  0.000000     24.000000
  0.432432  0.189189  0.000000     24.000000
  0.459459  0.189189  0.000000     24.000000
  0.486486  0.189189  0.000000     24.000000
 -0.486486  0.189189  0.000000     24.000000
 -0.459459  0.189189  0.000000     24.000000
 -0.432432  0.189189  0.000000     24.000000
 -0.405405  0.189189  0.000000     24.000000
 -0.378378  0.189189  0.000000     24.000000
 -0.351351  0.189189  0.000000     24.000000
 -0.324324  0.189189  0.000000     24.000000
 -0.297297  0.189189  0.000000     24.000000
 -0.270270  0.189189  0.000000     24.000000
 -0.243243  0.189189  0.000000     24.000000
 -0.216216  0.189189  0.000000     24.000000
 -0.189189  0.189189  0.000000     12.000000
  0.216216  0.216216  0.000000      6.000000
  0.243243  0.216216  0.000000     24.000000
  0.270270  0.216216  0.000000     24.000000
  0.297297  0.216216  0.000000     24.000000
  0.324324  0.216216  0.000000     24.000000
  0.351351  0.216216  0.000000     24.000000
  0.378378  0.216216  0.000000     24.000000
  0.405405  0.216216  0.000000     24.000000
  0.432432  0.216216  0.000000     24.000000
  0.459459  0.216216  0.000000     24.000000
  0.486486  0.216216  0.000000     24.000000
 -0.486486  0.216216  0.000000     24.000000
 -0.459459  0.216216  0.000000     24.000000
 -0.432432  0.216216  0.000000     24.000000
 -0.405405  0.216216  0.000000     24.000000
 -0.378378  0.216216  0.000000     24.000000
 -0.351351  0.216216  0.000000     24.000000
 -0.324324  0.216216  0.000000     24.000000
 -0.297297  0.216216  0.000000     24.000000
 -0.270270  0.216216  0.000000     24.000000
 -0.243243  0.216216  0.000000     24.000000
 -0.216216  0.216216  0.000000     12.000000
  0.243243  0.243243  0.000000      6.000000
  0.270270  0.243243  0.000000     24.000000
  0.297297  0.243243  0.000000     24.000000
  0.324324  0.243243  0.000000     24.000000
  0.351351  0.243243  0.000000     24.000000
  0.378378  0.243243  0.000000     24.000000
  0.405405  0.243243  0.000000     24.000000
  0.432432  0.243243  0.000000     24.000000
  0.459459  0.243243  0.000000     24.000000
  0.486486  0.243243  0.000000     24.000000
 -0.486486  0.243243  0.000000     24.000000
 -0.459459  0.243243  0.000000     24.000000
 -0.432432  0.243243  0.000000     24.000000
 -0.405405  0.243243  0.000000     24.000000
 -0.378378  0.243243  0.000000     24.000000
 -0.351351  0.243243  0.000000     24.000000
 -0.324324  0.243243  0.000000     24.000000
 -0.297297  0.243243  0.000000     24.000000
 -0.270270  0.243243  0.000000     24.000000
 -0.243243  0.243243  0.000000     12.000000
  0.270270  0.270270  0.000000      6.000000
  0.297297  0.270270  0.000000     24.000000
  0.324324  0.270270  0.000000     24.000000
  0.351351  0.270270  0.000000     24.000000
  0.378378  0.270270  0.000000     24.000000
  0.405405  0.270270  0.000000     24.000000
  0.432432  0.270270  0.000000     24.000000
  0.459459  0.270270  0.000000     24.000000
  0.486486  0.270270  0.000000     24.000000
 -0.486486  0.270270  0.000000     24.000000
 -0.459459  0.270270  0.000000     24.000000
 -0.432432  0.270270  0.000000     24.000000
 -0.405405  0.270270  0.000000     24.000000
 -0.378378  0.270270  0.000000     24.000000
 -0.351351  0.270270  0.000000     24.000000
 -0.324324  0.270270  0.000000     24.000000
 -0.297297  0.270270  0.000000     24.000000
 -0.270270  0.270270  0.000000     12.000000
  0.297297  0.297297  0.000000      6.000000
  0.324324  0.297297  0.000000     24.000000
  0.351351  0.297297  0.000000     24.000000
  0.378378  0.297297  0.000000     24.000000
  0.405405  0.297297  0.000000     24.000000
  0.432432  0.297297  0.000000     24.000000
  0.459459  0.297297  0.000000     24.000000
  0.486486  0.297297  0.000000     24.000000
 -0.486486  0.297297  0.000000     24.000000
 -0.459459  0.297297  0.000000     24.000000
 -0.432432  0.297297  0.000000     24.000000
 -0.405405  0.297297  0.000000     24.000000
 -0.378378  0.297297  0.000000     24.000000
 -0.351351  0.297297  0.000000     24.000000
 -0.324324  0.297297  0.000000     24.000000
 -0.297297  0.297297  0.000000     12.000000
  0.324324  0.324324  0.000000      6.000000
  0.351351  0.324324  0.000000     24.000000
  0.378378  0.324324  0.000000     24.000000
  0.405405  0.324324  0.000000     24.000000
  0.432432  0.324324  0.000000     24.000000
  0.459459  0.324324  0.000000     24.000000
  0.486486  0.324324  0.000000     24.000000
 -0.486486  0.324324  0.000000     24.000000
 -0.459459  0.324324  0.000000     24.000000
 -0.432432  0.324324  0.000000     24.000000
 -0.405405  0.324324  0.000000     24.000000
 -0.378378  0.324324  0.000000     24.000000
 -0.351351  0.324324  0.000000     24.000000
 -0.324324  0.324324  0.000000     12.000000
  0.351351  0.351351  0.000000      6.000000
  0.378378  0.351351  0.000000     24.000000
  0.405405  0.351351  0.000000     24.000000
  0.432432  0.351351  0.000000     24.000000
  0.459459  0.351351  0.000000     24.000000
  0.486486  0.351351  0.000000     24.000000
 -0.486486  0.351351  0.000000     24.000000
 -0.459459  0.351351  0.000000     24.000000
 -0.432432  0.351351  0.000000     24.000000
 -0.405405  0.351351  0.000000     24.000000
 -0.378378  0.351351  0.000000     24.000000
 -0.351351  0.351351  0.000000     12.000000
  0.378378  0.378378  0.000000      6.000000
  0.405405  0.378378  0.000000     24.000000
  0.432432  0.378378  0.000000     24.000000
  0.459459  0.378378  0.000000     24.000000
  0.486486  0.378378  0.000000     24.000000
 -0.486486  0.378378  0.000000     24.000000
 -0.459459  0.378378  0.000000     24.000000
 -0.432432  0.378378  0.000000     24.000000
 -0.405405  0.378378  0.000000     24.000000
 -0.378378  0.378378  0.000000     12.000000
  0.405405  0.405405  0.000000      6.000000
  0.432432  0.405405  0.000000     24.000000
  0.459459  0.405405  0.000000     24.000000
  0.486486  0.405405  0.000000     24.000000
 -0.486486  0.405405  0.000000     24.000000
 -0.459459  0.405405  0.000000     24.000000
 -0.432432  0.405405  0.000000     24.000000
 -0.405405  0.405405  0.000000     12.000000
  0.432432  0.432432  0.000000      6.000000
  0.459459  0.432432  0.000000     24.000000
  0.486486  0.432432  0.000000     24.000000
 -0.486486  0.432432  0.000000     24.000000
 -0.459459  0.432432  0.000000     24.000000
 -0.432432  0.432432  0.000000     12.000000
  0.459459  0.459459  0.000000      6.000000
  0.486486  0.459459  0.000000     24.000000
 -0.486486  0.459459  0.000000     24.000000
 -0.459459  0.459459  0.000000     12.000000
  0.486486  0.486486  0.000000      6.000000
 -0.486486  0.486486  0.000000     12.000000
  0.081081  0.054054  0.027027     24.000000
  0.108108  0.054054  0.027027     48.000000
  0.135135  0.054054  0.027027     48.000000
  0.162162  0.054054  0.027027     48.000000
  0.189189  0.054054  0.027027     48.000000
  0.216216  0.054054  0.027027     48.000000
  0.243243  0.054054  0.027027     48.000000
  0.270270  0.054054  0.027027     48.000000
  0.297297  0.054054  0.027027     48.000000
  0.324324  0.054054  0.027027     48.000000
  0.351351  0.054054  0.027027     48.000000
  0.378378  0.054054  0.027027     48.000000
  0.405405  0.054054  0.027027     48.000000
  0.432432  0.054054  0.027027     48.000000
  0.459459  0.054054  0.027027     48.000000
  0.486486  0.054054  0.027027     48.000000
 -0.486486  0.054054  0.027027     48.000000
  0.108108  0.081081  0.027027     24.000000
  0.135135  0.081081  0.027027     48.000000
  0.162162  0.081081  0.027027     48.000000
  0.189189  0.081081  0.027027     48.000000
  0.216216  0.081081  0.027027     48.000000
  0.243243  0.081081  0.027027     48.000000
  0.270270  0.081081  0.027027     48.000000
  0.297297  0.081081  0.027027     48.000000
  0.324324  0.081081  0.027027     48.000000
  0.351351  0.081081  0.027027     48.000000
  0.378378  0.081081  0.027027     48.000000
  0.405405  0.081081  0.027027     48.000000
  0.432432  0.081081  0.027027     48.000000
  0.459459  0.081081  0.027027     48.000000
  0.486486  0.081081  0.027027     48.000000
 -0.486486  0.081081  0.027027     48.000000
 -0.459459  0.081081  0.027027     48.000000
 -0.432432  0.081081  0.027027     48.000000
 -0.405405  0.081081  0.027027     48.000000
 -0.378378  0.081081  0.027027     48.000000
 -0.351351  0.081081  0.027027     48.000000
 -0.324324  0.081081  0.027027     48.000000
 -0.297297  0.081081  0.027027     48.000000
 -0.270270  0.081081  0.027027     48.000000
 -0.243243  0.081081  0.027027     48.000000
 -0.216216  0.081081  0.027027     48.000000
 -0.189189  0.081081  0.027027     48.000000
 -0.162162  0.081081  0.027027     48.000000
 -0.135135  0.081081  0.027027     48.000000
 -0.108108  0.081081  0.027027     48.000000
 -0.081081  0.081081  0.027027     48.000000
 -0.054054  0.081081  0.027027     24.000000
  0.135135  0.108108  0.027027     24.000000
  0.162162  0.108108  0.027027     48.000000
  0.189189  0.108108  0.027027     48.000000
  0.216216  0.108108  0.027027     48.000000
  0.243243  0.108108  0.027027     48.000000
  0.270270  0.108108  0.027027     48.000000
  0.297297  0.108108  0.027027     48.000000
  0.324324  0.108108  0.027027     48.000000
  0.351351  0.108108  0.027027     48.000000
  0.378378  0.108108  0.027027     48.000000
  0.405405  0.108108  0.027027     48.000000
  0.432432  0.108108  0.027027     48.000000
  0.459459  0.108108  0.027027     48.000000
  0.486486  0.108108  0.027027     48.000000
 -0.486486  0.108108  0.027027     48.000000
 -0.459459  0.108108  0.027027     48.000000
 -0.432432  0.108108  0.027027     48.000000
 -0.405405  0.108108  0.027027     48.000000
 -0.378378  0.108108  0.027027     48.000000
 -0.351351  0.108108  0.027027     48.000000
 -0.324324  0.108108  0.027027     48.000000
 -0.297297  0.108108  0.027027     48.000000
 -0.270270  0.108108  0.027027     48.000000
 -0.243243  0.108108  0.027027     48.000000
 -0.216216  0.108108  0.027027     48.000000
 -0.189189  0.108108  0.027027     48.000000
 -0.162162  0.108108  0.027027     48.000000
 -0.135135  0.108108  0.027027     48.000000
 -0.108108  0.108108  0.027027     48.000000
 -0.081081  0.108108  0.027027     24.000000
  0.162162  0.135135  0.027027     24.000000
  0.189189  0.135135  0.027027     48.000000
  0.216216  0.135135  0.027027     48.000000
  0.243243  0.135135  0.027027     48.000000
  0.270270  0.135135  0.027027     48.000000
  0.297297  0.135135  0.027027     48.000000
  0.324324  0.135135  0.027027     48.000000
  0.351351  0.135135  0.027027     48.000000
  0.378378  0.135135  0.027027     48.000000
  0.405405  0.135135  0.027027     48.000000
  0.432432  0.135135  0.027027     48.000000
  0.459459  0.135135  0.027027     48.000000
  0.486486  0.135135  0.027027     48.000000
 -0.486486  0.135135  0.027027     48.000000
 -0.459459  0.135135  0.027027     48.000000
 -0.432432  0.135135  0.027027     48.000000
 -0.405405  0.135135  0.027027     48.000000
 -0.378378  0.135135  0.027027     48.000000
 -0.351351  0.135135  0.027027     48.000000
 -0.324324  0.135135  0.027027     48.000000
 -0.297297  0.135135  0.027027     48.000000
 -0.270270  0.135135  0.027027     48.000000
 -0.243243  0.135135  0.027027     48.000000
 -0.216216  0.135135  0.027027     48.000000
 -0.189189  0.135135  0.027027     48.000000
 -0.162162  0.135135  0.027027     48.000000
 -0.135135  0.135135  0.027027     48.000000
 -0.108108  0.135135  0.027027     24.000000
  0.189189  0.162162  0.027027     24.000000
  0.216216  0.162162  0.027027     48.000000
  0.243243  0.162162  0.027027     48.000000
  0.270270  0.162162  0.027027     48.000000
  0.297297  0.162162  0.027027     48.000000
  0.324324  0.162162  0.027027     48.000000
  0.351351  0.162162  0.027027     48.000000
  0.378378  0.162162  0.027027     48.000000
  0.405405  0.162162  0.027027     48.000000
  0.432432  0.162162  0.027027     48.000000
  0.459459  0.162162  0.027027     48.000000
  0.486486  0.162162  0.027027     48.000000
 -0.486486  0.162162  0.027027     48.000000
 -0.459459  0.162162  0.027027     48.000000
 -0.432432  0.162162  0.027027     48.000000
 -0.405405  0.162162  0.027027     48.000000
 -0.378378  0.162162  0.027027     48.000000
 -0.351351  0.162162  0.027027     48.000000
 -0.324324  0.162162  0.027027     48.000000
 -0.297297  0.162162  0.027027     48.000000
 -0.270270  0.162162  0.027027     48.000000
 -0.243243  0.162162  0.027027     48.000000
 -0.216216  0.162162  0.027027     48.000000
 -0.189189  0.162162  0.027027     48.000000
 -0.162162  0.162162  0.027027     48.000000
 -0.135135  0.162162  0.027027     24.000000
  0.216216  0.189189  0.027027     24.000000
  0.243243  0.189189  0.027027     48.000000
  0.270270  0.189189  0.027027     48.000000
  0.297297  0.189189  0.027027     48.000000
  0.324324  0.189189  0.027027     48.000000
  0.351351  0.189189  0.027027     48.000000
  0.378378  0.189189  0.027027     48.000000
  0.405405  0.189189  0.027027     48.000000
  0.432432  0.189189  0.027027     48.000000
  0.459459  0.189189  0.027027     48.000000
  0.486486  0.189189  0.027027     48.000000
 -0.486486  0.189189  0.027027     48.000000
 -0.459459  0.189189  0.027027     48.000000
 -0.432432  0.189189  0.027027     48.000000
 -0.405405  0.189189  0.027027     48.000000
 -0.378378  0.189189  0.027027     48.000000
 -0.351351  0.189189  0.027027     48.000000
 -0.324324  0.189189  0.027027     48.000000
 -0.297297  0.189189  0.027027     48.000000
 -0.270270  0.189189  0.027027     48.000000
 -0.243243  0.189189  0.027027     48.000000
 -0.216216  0.189189  0.027027     48.000000
 -0.189189  0.189189  0.027027     48.000000
 -0.162162  0.189189  0.027027     24.000000
  0.243243  0.216216  0.027027     24.000000
  0.270270  0.216216  0.027027     48.000000
  0.297297  0.216216  0.027027     48.000000
  0.324324  0.216216  0.027027     48.000000
  0.351351  0.216216  0.027027     48.000000
  0.378378  0.216216  0.027027     48.000000
  0.405405  0.216216  0.027027     48.000000
  0.432432  0.216216  0.027027     48.000000
  0.459459  0.216216  0.027027     48.000000
  0.486486  0.216216  0.027027     48.000000
 -0.486486  0.216216  0.027027     48.000000
 -0.459459  0.216216  0.027027     48.000000
 -0.432432  0.216216  0.027027     48.000000
 -0.405405  0.216216  0.027027     48.000000
 -0.378378  0.216216  0.027027     48.000000
 -0.351351  0.216216  0.027027     48.000000
 -0.324324  0.216216  0.027027     48.000000
 -0.297297  0.216216  0.027027     48.000000
 -0.270270  0.216216  0.027027     48.000000
 -0.243243  0.216216  0.027027     48.000000
 -0.216216  0.216216  0.027027     48.000000
 -0.189189  0.216216  0.027027     24.000000
  0.270270  0.243243  0.027027     24.000000
  0.297297  0.243243  0.027027     48.000000
  0.324324  0.243243  0.027027     48.000000
  0.351351  0.243243  0.027027     48.000000
  0.378378  0.243243  0.027027     48.000000
  0.405405  0.243243  0.027027     48.000000
  0.432432  0.243243  0.027027     48.000000
  0.459459  0.243243  0.027027     48.000000
  0.486486  0.243243  0.027027     48.000000
 -0.486486  0.243243  0.027027     48.000000
 -0.459459  0.243243  0.027027     48.000000
 -0.432432  0.243243  0.027027     48.000000
 -0.405405  0.243243  0.027027     48.000000
 -0.378378  0.243243  0.027027     48.000000
 -0.351351  0.243243  0.027027     48.000000
 -0.324324  0.243243  0.027027     48.000000
 -0.297297  0.243243  0.027027     48.000000
 -0.270270  0.243243  0.027027     48.000000
 -0.243243  0.243243  0.027027     48.000000
 -0.216216  0.243243  0.027027     24.000000
  0.297297  0.270270  0.027027     24.000000
  0.324324  0.270270  0.027027     48.000000
  0.351351  0.270270  0.027027     48.000000
  0.378378  0.270270  0.027027     48.000000
  0.405405  0.270270  0.027027     48.000000
  0.432432  0.270270  0.027027     48.000000
  0.459459  0.270270  0.027027     48.000000
  0.486486  0.270270  0.027027     48.000000
 -0.486486  0.270270  0.027027     48.000000
 -0.459459  0.270270  0.027027     48.000000
 -0.432432  0.270270  0.027027     48.000000
 -0.405405  0.270270  0.027027     48.000000
 -0.378378  0.270270  0.027027     48.000000
 -0.351351  0.270270  0.027027     48.000000
 -0.324324  0.270270  0.027027     48.000000
 -0.297297  0.270270  0.027027     48.000000
 -0.270270  0.270270  0.027027     48.000000
 -0.243243  0.270270  0.027027     24.000000
  0.324324  0.297297  0.027027     24.000000
  0.351351  0.297297  0.027027     48.000000
  0.378378  0.297297  0.027027     48.000000
  0.405405  0.297297  0.027027     48.000000
  0.432432  0.297297  0.027027     48.000000
  0.459459  0.297297  0.027027     48.000000
  0.486486  0.297297  0.027027     48.000000
 -0.486486  0.297297  0.027027     48.000000
 -0.459459  0.297297  0.027027     48.000000
 -0.432432  0.297297  0.027027     48.000000
 -0.405405  0.297297  0.027027     48.000000
 -0.378378  0.297297  0.027027     48.000000
 -0.351351  0.297297  0.027027     48.000000
 -0.324324  0.297297  0.027027     48.000000
 -0.297297  0.297297  0.027027     48.000000
 -0.270270  0.297297  0.027027     24.000000
  0.351351  0.324324  0.027027     24.000000
  0.378378  0.324324  0.027027     48.000000
  0.405405  0.324324  0.027027     48.000000
  0.432432  0.324324  0.027027     48.000000
  0.459459  0.324324  0.027027     48.000000
  0.486486  0.324324  0.027027     48.000000
 -0.486486  0.324324  0.027027     48.000000
 -0.459459  0.324324  0.027027     48.000000
 -0.432432  0.324324  0.027027     48.000000
 -0.405405  0.324324  0.027027     48.000000
 -0.378378  0.324324  0.027027     48.000000
 -0.351351  0.324324  0.027027     48.000000
 -0.324324  0.324324  0.027027     48.000000
 -0.297297  0.324324  0.027027     24.000000
  0.378378  0.351351  0.027027     24.000000
  0.405405  0.351351  0.027027     48.000000
  0.432432  0.351351  0.027027     48.000000
  0.459459  0.351351  0.027027     48.000000
  0.486486  0.351351  0.027027     48.000000
 -0.486486  0.351351  0.027027     48.000000
 -0.459459  0.351351  0.027027     48.000000
 -0.432432  0.351351  0.027027     48.000000
 -0.405405  0.351351  0.027027     48.000000
 -0.378378  0.351351  0.027027     48.000000
 -0.351351  0.351351  0.027027     48.000000
 -0.324324  0.351351  0.027027     24.000000
  0.405405  0.378378  0.027027     24.000000
  0.432432  0.378378  0.027027     48.000000
  0.459459  0.378378  0.027027     48.000000
  0.486486  0.378378  0.027027     48.000000
 -0.486486  0.378378  0.027027     48.000000
 -0.459459  0.378378  0.027027     48.000000
 -0.432432  0.378378  0.027027     48.000000
 -0.405405  0.378378  0.027027     48.000000
 -0.378378  0.378378  0.027027     48.000000
 -0.351351  0.378378  0.027027     24.000000
  0.432432  0.405405  0.027027     24.000000
  0.459459  0.405405  0.027027     48.000000
  0.486486  0.405405  0.027027     48.000000
 -0.486486  0.405405  0.027027     48.000000
 -0.459459  0.405405  0.027027     48.000000
 -0.432432  0.405405  0.027027     48.000000
 -0.405405  0.405405  0.027027     48.000000
 -0.378378  0.405405  0.027027     24.000000
  0.459459  0.432432  0.027027     24.000000
  0.486486  0.432432  0.027027     48.000000
 -0.486486  0.432432  0.027027     48.000000
 -0.459459  0.432432  0.027027     48.000000
 -0.432432  0.432432  0.027027     48.000000
 -0.405405  0.432432  0.027027     24.000000
  0.486486  0.459459  0.027027     24.000000
 -0.486486  0.459459  0.027027     48.000000
 -0.459459  0.459459  0.027027     48.000000
 -0.432432  0.459459  0.027027     24.000000
 -0.486486  0.486486  0.027027     24.000000
 -0.459459  0.486486  0.027027     24.000000
  0.162162  0.108108  0.054054     24.000000
  0.189189  0.108108  0.054054     48.000000
  0.216216  0.108108  0.054054     48.000000
  0.243243  0.108108  0.054054     48.000000
  0.270270  0.108108  0.054054     48.000000
  0.297297  0.108108  0.054054     48.000000
  0.324324  0.108108  0.054054     48.000000
  0.351351  0.108108  0.054054     48.000000
  0.378378  0.108108  0.054054     48.000000
  0.405405  0.108108  0.054054     48.000000
  0.432432  0.108108  0.054054     48.000000
  0.459459  0.108108  0.054054     48.000000
  0.486486  0.108108  0.054054     48.000000
 -0.486486  0.108108  0.054054     48.000000
 -0.459459  0.108108  0.054054     48.000000
  0.189189  0.135135  0.054054     24.000000
  0.216216  0.135135  0.054054     48.000000
  0.243243  0.135135  0.054054     48.000000
  0.270270  0.135135  0.054054     48.000000
  0.297297  0.135135  0.054054     48.000000
  0.324324  0.135135  0.054054     48.000000
  0.351351  0.135135  0.054054     48.000000
  0.378378  0.135135  0.054054     48.000000
  0.405405  0.135135  0.054054     48.000000
  0.432432  0.135135  0.054054     48.000000
  0.459459  0.135135  0.054054     48.000000
  0.486486  0.135135  0.054054     48.000000
 -0.486486  0.135135  0.054054     48.000000
 -0.459459  0.135135  0.054054     48.000000
 -0.432432  0.135135  0.054054     48.000000
 -0.405405  0.135135  0.054054     48.000000
 -0.378378  0.135135  0.054054     48.000000
 -0.351351  0.135135  0.054054     48.000000
 -0.324324  0.135135  0.054054     48.000000
 -0.297297  0.135135  0.054054     48.000000
 -0.270270  0.135135  0.054054     48.000000
 -0.243243  0.135135  0.054054     48.000000
 -0.216216  0.135135  0.054054     48.000000
 -0.189189  0.135135  0.054054     48.000000
 -0.162162  0.135135  0.054054     48.000000
 -0.135135  0.135135  0.054054     48.000000
 -0.108108  0.135135  0.054054     48.000000
 -0.081081  0.135135  0.054054     24.000000
  0.216216  0.162162  0.054054     24.000000
  0.243243  0.162162  0.054054     48.000000
  0.270270  0.162162  0.054054     48.000000
  0.297297  0.162162  0.054054     48.000000
  0.324324  0.162162  0.054054     48.000000
  0.351351  0.162162  0.054054     48.000000
  0.378378  0.162162  0.054054     48.000000
  0.405405  0.162162  0.054054     48.000000
  0.432432  0.162162  0.054054     48.000000
  0.459459  0.162162  0.054054     48.000000
  0.486486  0.162162  0.054054     48.000000
 -0.486486  0.162162  0.054054     48.000000
 -0.459459  0.162162  0.054054     48.000000
 -0.432432  0.162162  0.054054     48.000000
 -0.405405  0.162162  0.054054     48.000000
 -0.378378  0.162162  0.054054     48.000000
 -0.351351  0.162162  0.054054     48.000000
 -0.324324  0.162162  0.054054     48.000000
 -0.297297  0.162162  0.054054     48.000000
 -0.270270  0.162162  0.054054     48.000000
 -0.243243  0.162162  0.054054     48.000000
 -0.216216  0.162162  0.054054     48.000000
 -0.189189  0.162162  0.054054     48.000000
 -0.162162  0.162162  0.054054     48.000000
 -0.135135  0.162162  0.054054     48.000000
 -0.108108  0.162162  0.054054     24.000000
  0.243243  0.189189  0.054054     24.000000
  0.270270  0.189189  0.054054     48.000000
  0.297297  0.189189  0.054054     48.000000
  0.324324  0.189189  0.054054     48.000000
  0.351351  0.189189  0.054054     48.000000
  0.378378  0.189189  0.054054     48.000000
  0.405405  0.189189  0.054054     48.000000
  0.432432  0.189189  0.054054     48.000000
  0.459459  0.189189  0.054054     48.000000
  0.486486  0.189189  0.054054     48.000000
 -0.486486  0.189189  0.054054     48.000000
 -0.459459  0.189189  0.054054     48.000000
 -0.432432  0.189189  0.054054     48.000000
 -0.405405  0.189189  0.054054     48.000000
 -0.378378  0.189189  0.054054     48.000000
 -0.351351  0.189189  0.054054     48.000000
 -0.324324  0.189189  0.054054     48.000000
 -0.297297  0.189189  0.054054     48.000000
 -0.270270  0.189189  0.054054     48.000000
 -0.243243  0.189189  0.054054     48.000000
 -0.216216  0.189189  0.054054     48.000000
 -0.189189  0.189189  0.054054     48.000000
 -0.162162  0.189189  0.054054     48.000000
 -0.135135  0.189189  0.054054     24.000000
  0.270270  0.216216  0.054054     24.000000
  0.297297  0.216216  0.054054     48.000000
  0.324324  0.216216  0.054054     48.000000
  0.351351  0.216216  0.054054     48.000000
  0.378378  0.216216  0.054054     48.000000
  0.405405  0.216216  0.054054     48.000000
  0.432432  0.216216  0.054054     48.000000
  0.459459  0.216216  0.054054     48.000000
  0.486486  0.216216  0.054054     48.000000
 -0.486486  0.216216  0.054054     48.000000
 -0.459459  0.216216  0.054054     48.000000
 -0.432432  0.216216  0.054054     48.000000
 -0.405405  0.216216  0.054054     48.000000
 -0.378378  0.216216  0.054054     48.000000
 -0.351351  0.216216  0.054054     48.000000
 -0.324324  0.216216  0.054054     48.000000
 -0.297297  0.216216  0.054054     48.000000
 -0.270270  0.216216  0.054054     48.000000
 -0.243243  0.216216  0.054054     48.000000
 -0.216216  0.216216  0.054054     48.000000
 -0.189189  0.216216  0.054054     48.000000
 -0.162162  0.216216  0.054054     24.000000
  0.297297  0.243243  0.054054     24.000000
  0.324324  0.243243  0.054054     48.000000
  0.351351  0.243243  0.054054     48.000000
  0.378378  0.243243  0.054054     48.000000
  0.405405  0.243243  0.054054     48.000000
  0.432432  0.243243  0.054054     48.000000
  0.459459  0.243243  0.054054     48.000000
  0.486486  0.243243  0.054054     48.000000
 -0.486486  0.243243  0.054054     48.000000
 -0.459459  0.243243  0.054054     48.000000
 -0.432432  0.243243  0.054054     48.000000
 -0.405405  0.243243  0.054054     48.000000
 -0.378378  0.243243  0.054054     48.000000
 -0.351351  0.243243  0.054054     48.000000
 -0.324324  0.243243  0.054054     48.000000
 -0.297297  0.243243  0.054054     48.000000
 -0.270270  0.243243  0.054054     48.000000
 -0.243243  0.243243  0.054054     48.000000
 -0.216216  0.243243  0.054054     48.000000
 -0.189189  0.243243  0.054054     24.000000
  0.324324  0.270270  0.054054     24.000000
  0.351351  0.270270  0.054054     48.000000
  0.378378  0.270270  0.054054     48.000000
  0.405405  0.270270  0.054054     48.000000
  0.432432  0.270270  0.054054     48.000000
  0.459459  0.270270  0.054054     48.000000
  0.486486  0.270270  0.054054     48.000000
 -0.486486  0.270270  0.054054     48.000000
 -0.459459  0.270270  0.054054     48.000000
 -0.432432  0.270270  0.054054     48.000000
 -0.405405  0.270270  0.054054     48.000000
 -0.378378  0.270270  0.054054     48.000000
 -0.351351  0.270270  0.054054     48.000000
 -0.324324  0.270270  0.054054     48.000000
 -0.297297  0.270270  0.054054     48.000000
 -0.270270  0.270270  0.054054     48.000000
 -0.243243  0.270270  0.054054     48.000000
 -0.216216  0.270270  0.054054     24.000000
  0.351351  0.297297  0.054054     24.000000
  0.378378  0.297297  0.054054     48.000000
  0.405405  0.297297  0.054054     48.000000
  0.432432  0.297297  0.054054     48.000000
  0.459459  0.297297  0.054054     48.000000
  0.486486  0.297297  0.054054     48.000000
 -0.486486  0.297297  0.054054     48.000000
 -0.459459  0.297297  0.054054     48.000000
 -0.432432  0.297297  0.054054     48.000000
 -0.405405  0.297297  0.054054     48.000000
 -0.378378  0.297297  0.054054     48.000000
 -0.351351  0.297297  0.054054     48.000000
 -0.324324  0.297297  0.054054     48.000000
 -0.297297  0.297297  0.054054     48.000000
 -0.270270  0.297297  0.054054     48.000000
 -0.243243  0.297297  0.054054     24.000000
  0.378378  0.324324  0.054054     24.000000
  0.405405  0.324324  0.054054     48.000000
  0.432432  0.324324  0.054054     48.000000
  0.459459  0.324324  0.054054     48.000000
  0.486486  0.324324  0.054054     48.000000
 -0.486486  0.324324  0.054054     48.000000
 -0.459459  0.324324  0.054054     48.000000
 -0.432432  0.324324  0.054054     48.000000
 -0.405405  0.324324  0.054054     48.000000
 -0.378378  0.324324  0.054054     48.000000
 -0.351351  0.324324  0.054054     48.000000
 -0.324324  0.324324  0.054054     48.000000
 -0.297297  0.324324  0.054054     48.000000
 -0.270270  0.324324  0.054054     24.000000
  0.405405  0.351351  0.054054     24.000000
  0.432432  0.351351  0.054054     48.000000
  0.459459  0.351351  0.054054     48.000000
  0.486486  0.351351  0.054054     48.000000
 -0.486486  0.351351  0.054054     48.000000
 -0.459459  0.351351  0.054054     48.000000
 -0.432432  0.351351  0.054054     48.000000
 -0.405405  0.351351  0.054054     48.000000
 -0.378378  0.351351  0.054054     48.000000
 -0.351351  0.351351  0.054054     48.000000
 -0.324324  0.351351  0.054054     48.000000
 -0.297297  0.351351  0.054054     24.000000
  0.432432  0.378378  0.054054     24.000000
  0.459459  0.378378  0.054054     48.000000
  0.486486  0.378378  0.054054     48.000000
 -0.486486  0.378378  0.054054     48.000000
 -0.459459  0.378378  0.054054     48.000000
 -0.432432  0.378378  0.054054     48.000000
 -0.405405  0.378378  0.054054     48.000000
 -0.378378  0.378378  0.054054     48.000000
 -0.351351  0.378378  0.054054     48.000000
 -0.324324  0.378378  0.054054     24.000000
  0.459459  0.405405  0.054054     24.000000
  0.486486  0.405405  0.054054     48.000000
 -0.486486  0.405405  0.054054     48.000000
 -0.459459  0.405405  0.054054     48.000000
 -0.432432  0.405405  0.054054     48.000000
 -0.405405  0.405405  0.054054     48.000000
 -0.378378  0.405405  0.054054     48.000000
 -0.351351  0.405405  0.054054     24.000000
  0.486486  0.432432  0.054054     24.000000
 -0.486486  0.432432  0.054054     48.000000
 -0.459459  0.432432  0.054054     48.000000
 -0.432432  0.432432  0.054054     48.000000
 -0.405405  0.432432  0.054054     48.000000
 -0.378378  0.432432  0.054054     24.000000
 -0.486486  0.459459  0.054054     24.000000
 -0.459459  0.459459  0.054054     48.000000
 -0.432432  0.459459  0.054054     48.000000
 -0.405405  0.459459  0.054054     24.000000
 -0.459459  0.486486  0.054054     24.000000
 -0.432432  0.486486  0.054054     24.000000
  0.243243  0.162162  0.081081     24.000000
  0.270270  0.162162  0.081081     48.000000
  0.297297  0.162162  0.081081     48.000000
  0.324324  0.162162  0.081081     48.000000
  0.351351  0.162162  0.081081     48.000000
  0.378378  0.162162  0.081081     48.000000
  0.405405  0.162162  0.081081     48.000000
  0.432432  0.162162  0.081081     48.000000
  0.459459  0.162162  0.081081     48.000000
  0.486486  0.162162  0.081081     48.000000
 -0.486486  0.162162  0.081081     48.000000
 -0.459459  0.162162  0.081081     48.000000
 -0.432432  0.162162  0.081081     48.000000
  0.270270  0.189189  0.081081     24.000000
  0.297297  0.189189  0.081081     48.000000
  0.324324  0.189189  0.081081     48.000000
  0.351351  0.189189  0.081081     48.000000
  0.378378  0.189189  0.081081     48.000000
  0.405405  0.189189  0.081081     48.000000
  0.432432  0.189189  0.081081     48.000000
  0.459459  0.189189  0.081081     48.000000
  0.486486  0.189189  0.081081     48.000000
 -0.486486  0.189189  0.081081     48.000000
 -0.459459  0.189189  0.081081     48.000000
 -0.432432  0.189189  0.081081     48.000000
 -0.405405  0.189189  0.081081     48.000000
 -0.378378  0.189189  0.081081     48.000000
 -0.351351  0.189189  0.081081     48.000000
 -0.324324  0.189189  0.081081     48.000000
 -0.297297  0.189189  0.081081     48.000000
 -0.270270  0.189189  0.081081     48.000000
 -0.243243  0.189189  0.081081     48.000000
 -0.216216  0.189189  0.081081     48.000000
 -0.189189  0.189189  0.081081     48.000000
 -0.162162  0.189189  0.081081     48.000000
 -0.135135  0.189189  0.081081     48.000000
 -0.108108  0.189189  0.081081     24.000000
  0.297297  0.216216  0.081081     24.000000
  0.324324  0.216216  0.081081     48.000000
  0.351351  0.216216  0.081081     48.000000
  0.378378  0.216216  0.081081     48.000000
  0.405405  0.216216  0.081081     48.000000
  0.432432  0.216216  0.081081     48.000000
  0.459459  0.216216  0.081081     48.000000
  0.486486  0.216216  0.081081     48.000000
 -0.486486  0.216216  0.081081     48.000000
 -0.459459  0.216216  0.081081     48.000000
 -0.432432  0.216216  0.081081     48.000000
 -0.405405  0.216216  0.081081     48.000000
 -0.378378  0.216216  0.081081     48.000000
 -0.351351  0.216216  0.081081     48.000000
 -0.324324  0.216216  0.081081     48.000000
 -0.297297  0.216216  0.081081     48.000000
 -0.270270  0.216216  0.081081     48.000000
 -0.243243  0.216216  0.081081     48.000000
 -0.216216  0.216216  0.081081     48.000000
 -0.189189  0.216216  0.081081     48.000000
 -0.162162  0.216216  0.081081     48.000000
 -0.135135  0.216216  0.081081     24.000000
  0.324324  0.243243  0.081081     24.000000
  0.351351  0.243243  0.081081     48.000000
  0.378378  0.243243  0.081081     48.000000
  0.405405  0.243243  0.081081     48.000000
  0.432432  0.243243  0.081081     48.000000
  0.459459  0.243243  0.081081     48.000000
  0.486486  0.243243  0.081081     48.000000
 -0.486486  0.243243  0.081081     48.000000
 -0.459459  0.243243  0.081081     48.000000
 -0.432432  0.243243  0.081081     48.000000
 -0.405405  0.243243  0.081081     48.000000
 -0.378378  0.243243  0.081081     48.000000
 -0.351351  0.243243  0.081081     48.000000
 -0.324324  0.243243  0.081081     48.000000
 -0.297297  0.243243  0.081081     48.000000
 -0.270270  0.243243  0.081081     48.000000
 -0.243243  0.243243  0.081081     48.000000
 -0.216216  0.243243  0.081081     48.000000
 -0.189189  0.243243  0.081081     48.000000
 -0.162162  0.243243  0.081081     24.000000
  0.351351  0.270270  0.081081     24.000000
  0.378378  0.270270  0.081081     48.000000
  0.405405  0.270270  0.081081     48.000000
  0.432432  0.270270  0.081081     48.000000
  0.459459  0.270270  0.081081     48.000000
  0.486486  0.270270  0.081081     48.000000
 -0.486486  0.270270  0.081081     48.000000
 -0.459459  0.270270  0.081081     48.000000
 -0.432432  0.270270  0.081081     48.000000
 -0.405405  0.270270  0.081081     48.000000
 -0.378378  0.270270  0.081081     48.000000
 -0.351351  0.270270  0.081081     48.000000
 -0.324324  0.270270  0.081081     48.000000
 -0.297297  0.270270  0.081081     48.000000
 -0.270270  0.270270  0.081081     48.000000
 -0.243243  0.270270  0.081081     48.000000
 -0.216216  0.270270  0.081081     48.000000
 -0.189189  0.270270  0.081081     24.000000
  0.378378  0.297297  0.081081     24.000000
  0.405405  0.297297  0.081081     48.000000
  0.432432  0.297297  0.081081     48.000000
  0.459459  0.297297  0.081081     48.000000
  0.486486  0.297297  0.081081     48.000000
 -0.486486  0.297297  0.081081     48.000000
 -0.459459  0.297297  0.081081     48.000000
 -0.432432  0.297297  0.081081     48.000000
 -0.405405  0.297297  0.081081     48.000000
 -0.378378  0.297297  0.081081     48.000000
 -0.351351  0.297297  0.081081     48.000000
 -0.324324  0.297297  0.081081     48.000000
 -0.297297  0.297297  0.081081     48.000000
 -0.270270  0.297297  0.081081     48.000000
 -0.243243  0.297297  0.081081     48.000000
 -0.216216  0.297297  0.081081     24.000000
  0.405405  0.324324  0.081081     24.000000
  0.432432  0.324324  0.081081     48.000000
  0.459459  0.324324  0.081081     48.000000
  0.486486  0.324324  0.081081     48.000000
 -0.486486  0.324324  0.081081     48.000000
 -0.459459  0.324324  0.081081     48.000000
 -0.432432  0.324324  0.081081     48.000000
 -0.405405  0.324324  0.081081     48.000000
 -0.378378  0.324324  0.081081     48.000000
 -0.351351  0.324324  0.081081     48.000000
 -0.324324  0.324324  0.081081     48.000000
 -0.297297  0.324324  0.081081     48.000000
 -0.270270  0.324324  0.081081     48.000000
 -0.243243  0.324324  0.081081     24.000000
  0.432432  0.351351  0.081081     24.000000
  0.459459  0.351351  0.081081     48.000000
  0.486486  0.351351  0.081081     48.000000
 -0.486486  0.351351  0.081081     48.000000
 -0.459459  0.351351  0.081081     48.000000
 -0.432432  0.351351  0.081081     48.000000
 -0.405405  0.351351  0.081081     48.000000
 -0.378378  0.351351  0.081081     48.000000
 -0.351351  0.351351  0.081081     48.000000
 -0.324324  0.351351  0.081081     48.000000
 -0.297297  0.351351  0.081081     48.000000
 -0.270270  0.351351  0.081081     24.000000
  0.459459  0.378378  0.081081     24.000000
  0.486486  0.378378  0.081081     48.000000
 -0.486486  0.378378  0.081081     48.000000
 -0.459459  0.378378  0.081081     48.000000
 -0.432432  0.378378  0.081081     48.000000
 -0.405405  0.378378  0.081081     48.000000
 -0.378378  0.378378  0.081081     48.000000
 -0.351351  0.378378  0.081081     48.000000
 -0.324324  0.378378  0.081081     48.000000
 -0.297297  0.378378  0.081081     24.000000
  0.486486  0.405405  0.081081     24.000000
 -0.486486  0.405405  0.081081     48.000000
 -0.459459  0.405405  0.081081     48.000000
 -0.432432  0.405405  0.081081     48.000000
 -0.405405  0.405405  0.081081     48.000000
 -0.378378  0.405405  0.081081     48.000000
 -0.351351  0.405405  0.081081     48.000000
 -0.324324  0.405405  0.081081     24.000000
 -0.486486  0.432432  0.081081     24.000000
 -0.459459  0.432432  0.081081     48.000000
 -0.432432  0.432432  0.081081     48.000000
 -0.405405  0.432432  0.081081     48.000000
 -0.378378  0.432432  0.081081     48.000000
 -0.351351  0.432432  0.081081     24.000000
 -0.459459  0.459459  0.081081     24.000000
 -0.432432  0.459459  0.081081     48.000000
 -0.405405  0.459459  0.081081     48.000000
 -0.378378  0.459459  0.081081     24.000000
 -0.432432  0.486486  0.081081     24.000000
 -0.405405  0.486486  0.081081     24.000000
  0.324324  0.216216  0.108108     24.000000
  0.351351  0.216216  0.108108     48.000000
  0.378378  0.216216  0.108108     48.000000
  0.405405  0.216216  0.108108     48.000000
  0.432432  0.216216  0.108108     48.000000
  0.459459  0.216216  0.108108     48.000000
  0.486486  0.216216  0.108108     48.000000
 -0.486486  0.216216  0.108108     48.000000
 -0.459459  0.216216  0.108108     48.000000
 -0.432432  0.216216  0.108108     48.000000
 -0.405405  0.216216  0.108108     48.000000
  0.351351  0.243243  0.108108     24.000000
  0.378378  0.243243  0.108108     48.000000
  0.405405  0.243243  0.108108     48.000000
  0.432432  0.243243  0.108108     48.000000
  0.459459  0.243243  0.108108     48.000000
  0.486486  0.243243  0.108108     48.000000
 -0.486486  0.243243  0.108108     48.000000
 -0.459459  0.243243  0.108108     48.000000
 -0.432432  0.243243  0.108108     48.000000
 -0.405405  0.243243  0.108108     48.000000
 -0.378378  0.243243  0.108108     48.000000
 -0.351351  0.243243  0.108108     48.000000
 -0.324324  0.243243  0.108108     48.000000
 -0.297297  0.243243  0.108108     48.000000
 -0.270270  0.243243  0.108108     48.000000
 -0.243243  0.243243  0.108108     48.000000
 -0.216216  0.243243  0.108108     48.000000
 -0.189189  0.243243  0.108108     48.000000
 -0.162162  0.243243  0.108108     48.000000
 -0.135135  0.243243  0.108108     24.000000
  0.378378  0.270270  0.108108     24.000000
  0.405405  0.270270  0.108108     48.000000
  0.432432  0.270270  0.108108     48.000000
  0.459459  0.270270  0.108108     48.000000
  0.486486  0.270270  0.108108     48.000000
 -0.486486  0.270270  0.108108     48.000000
 -0.459459  0.270270  0.108108     48.000000
 -0.432432  0.270270  0.108108     48.000000
 -0.405405  0.270270  0.108108     48.000000
 -0.378378  0.270270  0.108108     48.000000
 -0.351351  0.270270  0.108108     48.000000
 -0.324324  0.270270  0.108108     48.000000
 -0.297297  0.270270  0.108108     48.000000
 -0.270270  0.270270  0.108108     48.000000
 -0.243243  0.270270  0.108108     48.000000
 -0.216216  0.270270  0.108108     48.000000
 -0.189189  0.270270  0.108108     48.000000
 -0.162162  0.270270  0.108108     24.000000
  0.405405  0.297297  0.108108     24.000000
  0.432432  0.297297  0.108108     48.000000
  0.459459  0.297297  0.108108     48.000000
  0.486486  0.297297  0.108108     48.000000
 -0.486486  0.297297  0.108108     48.000000
 -0.459459  0.297297  0.108108     48.000000
 -0.432432  0.297297  0.108108     48.000000
 -0.405405  0.297297  0.108108     48.000000
 -0.378378  0.297297  0.108108     48.000000
 -0.351351  0.297297  0.108108     48.000000
 -0.324324  0.297297  0.108108     48.000000
 -0.297297  0.297297  0.108108     48.000000
 -0.270270  0.297297  0.108108     48.000000
 -0.243243  0.297297  0.108108     48.000000
 -0.216216  0.297297  0.108108     48.000000
 -0.189189  0.297297  0.108108     24.000000
  0.432432  0.324324  0.108108     24.000000
  0.459459  0.324324  0.108108     48.000000
  0.486486  0.324324  0.108108     48.000000
 -0.486486  0.324324  0.108108     48.000000
 -0.459459  0.324324  0.108108     48.000000
 -0.432432  0.324324  0.108108     48.000000
 -0.405405  0.324324  0.108108     48.000000
 -0.378378  0.324324  0.108108     48.000000
 -0.351351  0.324324  0.108108     48.000000
 -0.324324  0.324324  0.108108     48.000000
 -0.297297  0.324324  0.108108     48.000000
 -0.270270  0.324324  0.108108     48.000000
 -0.243243  0.324324  0.108108     48.000000
 -0.216216  0.324324  0.108108     24.000000
  0.459459  0.351351  0.108108     24.000000
  0.486486  0.351351  0.108108     48.000000
 -0.486486  0.351351  0.108108     48.000000
 -0.459459  0.351351  0.108108     48.000000
 -0.432432  0.351351  0.108108     48.000000
 -0.405405  0.351351  0.108108     48.000000
 -0.378378  0.351351  0.108108     48.000000
 -0.351351  0.351351  0.108108     48.000000
 -0.324324  0.351351  0.108108     48.000000
 -0.297297  0.351351  0.108108     48.000000
 -0.270270  0.351351  0.108108     48.000000
 -0.243243  0.351351  0.108108     24.000000
  0.486486  0.378378  0.108108     24.000000
 -0.486486  0.378378  0.108108     48.000000
 -0.459459  0.378378  0.108108     48.000000
 -0.432432  0.378378  0.108108     48.000000
 -0.405405  0.378378  0.108108     48.000000
 -0.378378  0.378378  0.108108     48.000000
 -0.351351  0.378378  0.108108     48.000000
 -0.324324  0.378378  0.108108     48.000000
 -0.297297  0.378378  0.108108     48.000000
 -0.270270  0.378378  0.108108     24.000000
 -0.486486  0.405405  0.108108     24.000000
 -0.459459  0.405405  0.108108     48.000000
 -0.432432  0.405405  0.108108     48.000000
 -0.405405  0.405405  0.108108     48.000000
 -0.378378  0.405405  0.108108     48.000000
 -0.351351  0.405405  0.108108     48.000000
 -0.324324  0.405405  0.108108     48.000000
 -0.297297  0.405405  0.108108     24.000000
 -0.459459  0.432432  0.108108     24.000000
 -0.432432  0.432432  0.108108     48.000000
 -0.405405  0.432432  0.108108     48.000000
 -0.378378  0.432432  0.108108     48.000000
 -0.351351  0.432432  0.108108     48.000000
 -0.324324  0.432432  0.108108     24.000000
 -0.432432  0.459459  0.108108     24.000000
 -0.405405  0.459459  0.108108     48.000000
 -0.378378  0.459459  0.108108     48.000000
 -0.351351  0.459459  0.108108     24.000000
 -0.405405  0.486486  0.108108     24.000000
 -0.378378  0.486486  0.108108     24.000000
  0.405405  0.270270  0.135135     24.000000
  0.432432  0.270270  0.135135     48.000000
  0.459459  0.270270  0.135135     48.000000
  0.486486  0.270270  0.135135     48.000000
 -0.486486  0.270270  0.135135     48.000000
 -0.459459  0.270270  0.135135     48.000000
 -0.432432  0.270270  0.135135     48.000000
 -0.405405  0.270270  0.135135     48.000000
 -0.378378  0.270270  0.135135     48.000000
  0.432432  0.297297  0.135135     24.000000
  0.459459  0.297297  0.135135     48.000000
  0.486486  0.297297  0.135135     48.000000
 -0.486486  0.297297  0.135135     48.000000
 -0.459459  0.297297  0.135135     48.000000
 -0.432432  0.297297  0.135135     48.000000
 -0.405405  0.297297  0.135135     48.000000
 -0.378378  0.297297  0.135135     48.000000
 -0.351351  0.297297  0.135135     48.000000
 -0.324324  0.297297  0.135135     48.000000
 -0.297297  0.297297  0.135135     48.000000
 -0.270270  0.297297  0.135135     48.000000
 -0.243243  0.297297  0.135135     48.000000
 -0.216216  0.297297  0.135135     48.000000
 -0.189189  0.297297  0.135135     48.000000
 -0.162162  0.297297  0.135135     24.000000
  0.459459  0.324324  0.135135     24.000000
  0.486486  0.324324  0.135135     48.000000
 -0.486486  0.324324  0.135135     48.000000
 -0.459459  0.324324  0.135135     48.000000
 -0.432432  0.324324  0.135135     48.000000
 -0.405405  0.324324  0.135135     48.000000
 -0.378378  0.324324  0.135135     48.000000
 -0.351351  0.324324  0.135135     48.000000
 -0.324324  0.324324  0.135135     48.000000
 -0.297297  0.324324  0.135135     48.000000
 -0.270270  0.324324  0.135135     48.000000
 -0.243243  0.324324  0.135135     48.000000
 -0.216216  0.324324  0.135135     48.000000
 -0.189189  0.324324  0.135135     24.000000
  0.486486  0.351351  0.135135     24.000000
 -0.486486  0.351351  0.135135     48.000000
 -0.459459  0.351351  0.135135     48.000000
 -0.432432  0.351351  0.135135     48.000000
 -0.405405  0.351351  0.135135     48.000000
 -0.378378  0.351351  0.135135     48.000000
 -0.351351  0.351351  0.135135     48.000000
 -0.324324  0.351351  0.135135     48.000000
 -0.297297  0.351351  0.135135     48.000000
 -0.270270  0.351351  0.135135     48.000000
 -0.243243  0.351351  0.135135     48.000000
 -0.216216  0.351351  0.135135     24.000000
 -0.486486  0.378378  0.135135     24.000000
 -0.459459  0.378378  0.135135     48.000000
 -0.432432  0.378378  0.135135     48.000000
 -0.405405  0.378378  0.135135     48.000000
 -0.378378  0.378378  0.135135     48.000000
 -0.351351  0.378378  0.135135     48.000000
 -0.324324  0.378378  0.135135     48.000000
 -0.297297  0.378378  0.135135     48.000000
 -0.270270  0.378378  0.135135     48.000000
 -0.243243  0.378378  0.135135     24.000000
 -0.459459  0.405405  0.135135     24.000000
 -0.432432  0.405405  0.135135     48.000000
 -0.405405  0.405405  0.135135     48.000000
 -0.378378  0.405405  0.135135     48.000000
 -0.351351  0.405405  0.135135     48.000000
 -0.324324  0.405405  0.135135     48.000000
 -0.297297  0.405405  0.135135     48.000000
 -0.270270  0.405405  0.135135     24.000000
 -0.432432  0.432432  0.135135     24.000000
 -0.405405  0.432432  0.135135     48.000000
 -0.378378  0.432432  0.135135     48.000000
 -0.351351  0.432432  0.135135     48.000000
 -0.324324  0.432432  0.135135     48.000000
 -0.297297  0.432432  0.135135     24.000000
 -0.405405  0.459459  0.135135     24.000000
 -0.378378  0.459459  0.135135     48.000000
 -0.351351  0.459459  0.135135     48.000000
 -0.324324  0.459459  0.135135     24.000000
 -0.378378  0.486486  0.135135     24.000000
 -0.351351  0.486486  0.135135     24.000000
  0.486486  0.324324  0.162162     24.000000
 -0.486486  0.324324  0.162162     48.000000
 -0.459459  0.324324  0.162162     48.000000
 -0.432432  0.324324  0.162162     48.000000
 -0.405405  0.324324  0.162162     48.000000
 -0.378378  0.324324  0.162162     48.000000
 -0.351351  0.324324  0.162162     48.000000
 -0.486486  0.351351  0.162162     24.000000
 -0.459459  0.351351  0.162162     48.000000
 -0.432432  0.351351  0.162162     48.000000
 -0.405405  0.351351  0.162162     48.000000
 -0.378378  0.351351  0.162162     48.000000
 -0.351351  0.351351  0.162162     48.000000
 -0.324324  0.351351  0.162162     48.000000
 -0.297297  0.351351  0.162162     48.000000
 -0.270270  0.351351  0.162162     48.000000
 -0.243243  0.351351  0.162162     48.000000
 -0.216216  0.351351  0.162162     48.000000
 -0.189189  0.351351  0.162162     24.000000
 -0.459459  0.378378  0.162162     24.000000
 -0.432432  0.378378  0.162162     48.000000
 -0.405405  0.378378  0.162162     48.000000
 -0.378378  0.378378  0.162162     48.000000
 -0.351351  0.378378  0.162162     48.000000
 -0.324324  0.378378  0.162162     48.000000
 -0.297297  0.378378  0.162162     48.000000
 -0.270270  0.378378  0.162162     48.000000
 -0.243243  0.378378  0.162162     48.000000
 -0.216216  0.378378  0.162162     24.000000
 -0.432432  0.405405  0.162162     24.000000
 -0.405405  0.405405  0.162162     48.000000
 -0.378378  0.405405  0.162162     48.000000
 -0.351351  0.405405  0.162162     48.000000
 -0.324324  0.405405  0.162162     48.000000
 -0.297297  0.405405  0.162162     48.000000
 -0.270270  0.405405  0.162162     48.000000
 -0.243243  0.405405  0.162162     24.000000
 -0.405405  0.432432  0.162162     24.000000
 -0.378378  0.432432  0.162162     48.000000
 -0.351351  0.432432  0.162162     48.000000
 -0.324324  0.432432  0.162162     48.000000
 -0.297297  0.432432  0.162162     48.000000
 -0.270270  0.432432  0.162162     24.000000
 -0.378378  0.459459  0.162162     24.000000
 -0.351351  0.459459  0.162162     48.000000
 -0.324324  0.459459  0.162162     48.000000
 -0.297297  0.459459  0.162162     24.000000
 -0.351351  0.486486  0.162162     24.000000
 -0.324324  0.486486  0.162162     24.000000
 -0.432432  0.378378  0.189189     24.000000
 -0.405405  0.378378  0.189189     48.000000
 -0.378378  0.378378  0.189189     48.000000
 -0.351351  0.378378  0.189189     48.000000
 -0.324324  0.378378  0.189189     48.000000
 -0.405405  0.405405  0.189189     24.000000
 -0.378378  0.405405  0.189189     48.000000
 -0.351351  0.405405  0.189189     48.000000
 -0.324324  0.405405  0.189189     48.000000
 -0.297297  0.405405  0.189189     48.000000
 -0.270270  0.405405  0.189189     48.000000
 -0.243243  0.405405  0.189189     48.000000
 -0.216216  0.405405  0.189189     24.000000
 -0.378378  0.432432  0.189189     24.000000
 -0.351351  0.432432  0.189189     48.000000
 -0.324324  0.432432  0.189189     48.000000
 -0.297297  0.432432  0.189189     48.000000
 -0.270270  0.432432  0.189189     48.000000
 -0.243243  0.432432  0.189189     24.000000
 -0.351351  0.459459  0.189189     24.000000
 -0.324324  0.459459  0.189189     48.000000
 -0.297297  0.459459  0.189189     48.000000
 -0.270270  0.459459  0.189189     24.000000
 -0.324324  0.486486  0.189189     24.000000
 -0.297297  0.486486  0.189189     24.000000
 -0.351351  0.432432  0.216216     24.000000
 -0.324324  0.432432  0.216216     48.000000
 -0.297297  0.432432  0.216216     48.000000
 -0.324324  0.459459  0.216216     24.000000
 -0.297297  0.459459  0.216216     48.000000
 -0.270270  0.459459  0.216216     48.000000
 -0.243243  0.459459  0.216216     24.000000
 -0.297297  0.486486  0.216216     24.000000
 -0.270270  0.486486  0.216216     24.000000
 -0.270270  0.486486  0.243243     24.000000
 
 Following cartesian coordinates:
            Coordinates               Weight
  0.000000  0.000000  0.000000      1.000000
 -0.027027  0.027027  0.027027      8.000000
 -0.054054  0.054054  0.054054      8.000000
 -0.081081  0.081081  0.081081      8.000000
 -0.108108  0.108108  0.108108      8.000000
 -0.135135  0.135135  0.135135      8.000000
 -0.162162  0.162162  0.162162      8.000000
 -0.189189  0.189189  0.189189      8.000000
 -0.216216  0.216216  0.216216      8.000000
 -0.243243  0.243243  0.243243      8.000000
 -0.270270  0.270270  0.270270      8.000000
 -0.297297  0.297297  0.297297      8.000000
 -0.324324  0.324324  0.324324      8.000000
 -0.351351  0.351351  0.351351      8.000000
 -0.378378  0.378378  0.378378      8.000000
 -0.405405  0.405405  0.405405      8.000000
 -0.432432  0.432432  0.432432      8.000000
 -0.459459  0.459459  0.459459      8.000000
 -0.486486  0.486486  0.486486      8.000000
  0.000000  0.000000  0.054054      6.000000
 -0.027027  0.027027  0.081081     24.000000
 -0.054054  0.054054  0.108108     24.000000
 -0.081081  0.081081  0.135135     24.000000
 -0.108108  0.108108  0.162162     24.000000
 -0.135135  0.135135  0.189189     24.000000
 -0.162162  0.162162  0.216216     24.000000
 -0.189189  0.189189  0.243243     24.000000
 -0.216216  0.216216  0.270270     24.000000
 -0.243243  0.243243  0.297297     24.000000
 -0.270270  0.270270  0.324324     24.000000
 -0.297297  0.297297  0.351351     24.000000
 -0.324324  0.324324  0.378378     24.000000
 -0.351351  0.351351  0.405405     24.000000
 -0.378378  0.378378  0.432432     24.000000
 -0.405405  0.405405  0.459459     24.000000
 -0.432432  0.432432  0.486486     24.000000
 -0.459459  0.459459  0.513514     24.000000
  0.513514 -0.513514 -0.459459     24.000000
  0.486486 -0.486486 -0.432432     24.000000
  0.459459 -0.459459 -0.405405     24.000000
  0.432432 -0.432432 -0.378378     24.000000
  0.405405 -0.405405 -0.351351     24.000000
  0.378378 -0.378378 -0.324324     24.000000
  0.351351 -0.351351 -0.297297     24.000000
  0.324324 -0.324324 -0.270270     24.000000
  0.297297 -0.297297 -0.243243     24.000000
  0.270270 -0.270270 -0.216216     24.000000
  0.243243 -0.243243 -0.189189     24.000000
  0.216216 -0.216216 -0.162162     24.000000
  0.189189 -0.189189 -0.135135     24.000000
  0.162162 -0.162162 -0.108108     24.000000
  0.135135 -0.135135 -0.081081     24.000000
  0.108108 -0.108108 -0.054054     24.000000
  0.081081 -0.081081 -0.027027     24.000000
  0.054054 -0.054054  0.000000     12.000000
  0.000000  0.000000  0.108108      6.000000
 -0.027027  0.027027  0.135135     24.000000
 -0.054054  0.054054  0.162162     24.000000
 -0.081081  0.081081  0.189189     24.000000
 -0.108108  0.108108  0.216216     24.000000
 -0.135135  0.135135  0.243243     24.000000
 -0.162162  0.162162  0.270270     24.000000
 -0.189189  0.189189  0.297297     24.000000
 -0.216216  0.216216  0.324324     24.000000
 -0.243243  0.243243  0.351351     24.000000
 -0.270270  0.270270  0.378378     24.000000
 -0.297297  0.297297  0.405405     24.000000
 -0.324324  0.324324  0.432432     24.000000
 -0.351351  0.351351  0.459459     24.000000
 -0.378378  0.378378  0.486486     24.000000
 -0.405405  0.405405  0.513514     24.000000
 -0.432432  0.432432  0.540541     24.000000
  0.540541 -0.540541 -0.432432     24.000000
  0.513514 -0.513514 -0.405405     24.000000
  0.486486 -0.486486 -0.378378     24.000000
  0.459459 -0.459459 -0.351351     24.000000
  0.432432 -0.432432 -0.324324     24.000000
  0.405405 -0.405405 -0.297297     24.000000
  0.378378 -0.378378 -0.270270     24.000000
  0.351351 -0.351351 -0.243243     24.000000
  0.324324 -0.324324 -0.216216     24.000000
  0.297297 -0.297297 -0.189189     24.000000
  0.270270 -0.270270 -0.162162     24.000000
  0.243243 -0.243243 -0.135135     24.000000
  0.216216 -0.216216 -0.108108     24.000000
  0.189189 -0.189189 -0.081081     24.000000
  0.162162 -0.162162 -0.054054     24.000000
  0.135135 -0.135135 -0.027027     24.000000
  0.108108 -0.108108  0.000000     12.000000
  0.000000  0.000000  0.162162      6.000000
 -0.027027  0.027027  0.189189     24.000000
 -0.054054  0.054054  0.216216     24.000000
 -0.081081  0.081081  0.243243     24.000000
 -0.108108  0.108108  0.270270     24.000000
 -0.135135  0.135135  0.297297     24.000000
 -0.162162  0.162162  0.324324     24.000000
 -0.189189  0.189189  0.351351     24.000000
 -0.216216  0.216216  0.378378     24.000000
 -0.243243  0.243243  0.405405     24.000000
 -0.270270  0.270270  0.432432     24.000000
 -0.297297  0.297297  0.459459     24.000000
 -0.324324  0.324324  0.486486     24.000000
 -0.351351  0.351351  0.513514     24.000000
 -0.378378  0.378378  0.540541     24.000000
 -0.405405  0.405405  0.567568     24.000000
  0.567568 -0.567568 -0.405405     24.000000
  0.540541 -0.540541 -0.378378     24.000000
  0.513514 -0.513514 -0.351351     24.000000
  0.486486 -0.486486 -0.324324     24.000000
  0.459459 -0.459459 -0.297297     24.000000
  0.432432 -0.432432 -0.270270     24.000000
  0.405405 -0.405405 -0.243243     24.000000
  0.378378 -0.378378 -0.216216     24.000000
  0.351351 -0.351351 -0.189189     24.000000
  0.324324 -0.324324 -0.162162     24.000000
  0.297297 -0.297297 -0.135135     24.000000
  0.270270 -0.270270 -0.108108     24.000000
  0.243243 -0.243243 -0.081081     24.000000
  0.216216 -0.216216 -0.054054     24.000000
  0.189189 -0.189189 -0.027027     24.000000
  0.162162 -0.162162  0.000000     12.000000
  0.000000  0.000000  0.216216      6.000000
 -0.027027  0.027027  0.243243     24.000000
 -0.054054  0.054054  0.270270     24.000000
 -0.081081  0.081081  0.297297     24.000000
 -0.108108  0.108108  0.324324     24.000000
 -0.135135  0.135135  0.351351     24.000000
 -0.162162  0.162162  0.378378     24.000000
 -0.189189  0.189189  0.405405     24.000000
 -0.216216  0.216216  0.432432     24.000000
 -0.243243  0.243243  0.459459     24.000000
 -0.270270  0.270270  0.486486     24.000000
 -0.297297  0.297297  0.513514     24.000000
 -0.324324  0.324324  0.540541     24.000000
 -0.351351  0.351351  0.567568     24.000000
 -0.378378  0.378378  0.594595     24.000000
[...]
      8      21.4911      0.00000

 k-point  1297 :      -0.4054    0.3784    0.1892
  band No.  band energies     occupation 
      1      -6.8401      2.00000
      2      -2.4740      2.00000
      3       0.0790      2.00000
      4       2.0604      2.00000
      5      16.1151      0.00000
      6      17.4318      0.00000
      7      17.9927      0.00000
      8      21.4510      0.00000

 k-point  1298 :      -0.3784    0.3784    0.1892
  band No.  band energies     occupation 
      1      -6.4186      2.00000
      2      -2.8824      2.00000
      3      -0.0468      2.00000
      4       1.8689      2.00000
      5      16.4178      0.00000
      6      17.3248      0.00000
      7      18.4134      0.00000
      8      21.2106      0.00000

 k-point  1299 :      -0.3514    0.3784    0.1892
  band No.  band energies     occupation 
      1      -6.0497      2.00000
      2      -3.2539      2.00000
      3      -0.1149      2.00000
      4       1.7328      2.00000
      5      16.6039      0.00000
      6      17.2218      0.00000
      7      18.9821      0.00000
      8      20.7904      0.00000

 k-point  1300 :      -0.3243    0.3784    0.1892
  band No.  band energies     occupation 
      1      -5.8140      2.00000
      2      -3.4943      2.00000
      3      -0.1439      2.00000
      4       1.6618      2.00000
      5      16.7002      0.00000
      6      17.1525      0.00000
      7      19.6121      0.00000
      8      20.2403      0.00000

 k-point  1301 :      -0.4054    0.4054    0.1892
  band No.  band energies     occupation 
      1      -6.6636      2.00000
      2      -2.5554      2.00000
      3       0.1801      2.00000
      4       1.7271      2.00000
      5      15.7428      0.00000
      6      17.2054      0.00000
      7      18.2866      0.00000
      8      21.6159      0.00000

 k-point  1302 :      -0.3784    0.4054    0.1892
  band No.  band energies     occupation 
      1      -6.2387      2.00000
      2      -2.9086      2.00000
      3       0.0013      2.00000
      4       1.5113      2.00000
      5      16.1695      0.00000
      6      17.5109      0.00000
      7      18.1752      0.00000
      8      21.3509      0.00000

 k-point  1303 :      -0.3514    0.4054    0.1892
  band No.  band energies     occupation 
      1      -5.8481      2.00000
      2      -3.2546      2.00000
      3      -0.1292      2.00000
      4       1.3650      2.00000
      5      16.4400      0.00000
      6      17.8226      0.00000
      7      18.2713      0.00000
      8      20.9037      0.00000

 k-point  1304 :      -0.3243    0.4054    0.1892
  band No.  band energies     occupation 
      1      -5.5585      2.00000
      2      -3.5197      2.00000
      3      -0.2235      2.00000
      4       1.2999      2.00000
      5      16.6184      0.00000
      6      17.7759      0.00000
      7      18.8503      0.00000
      8      20.3288      0.00000

 k-point  1305 :      -0.2973    0.4054    0.1892
  band No.  band energies     occupation 
      1      -5.4830      2.00000
      2      -3.5864      2.00000
      3      -0.2847      2.00000
      4       1.3188      2.00000
      5      16.7663      0.00000
      6      17.6398      0.00000
      7      19.5404      0.00000
      8      19.6921      0.00000

 k-point  1306 :      -0.2703    0.4054    0.1892
  band No.  band energies     occupation 
      1      -5.6660      2.00000
      2      -3.4121      2.00000
      3      -0.3041      2.00000
      4       1.4159      2.00000
      5      16.9089      0.00000
      6      17.4558      0.00000
      7      19.0545      0.00000
      8      20.2204      0.00000

 k-point  1307 :      -0.2432    0.4054    0.1892
  band No.  band energies     occupation 
      1      -6.0082      2.00000
      2      -3.1047      2.00000
      3      -0.2639      2.00000
      4       1.5802      2.00000
      5      17.0219      0.00000
      6      17.2059      0.00000
      7      18.5216      0.00000
      8      20.8087      0.00000

 k-point  1308 :      -0.2162    0.4054    0.1892
  band No.  band energies     occupation 
      1      -6.4149      2.00000
      2      -2.7728      2.00000
      3      -0.1421      2.00000
      4       1.7993      2.00000
      5      16.6822      0.00000
      6      17.2589      0.00000
      7      18.1744      0.00000
      8      21.2396      0.00000

 k-point  1309 :      -0.3784    0.4324    0.1892
  band No.  band energies     occupation 
      1      -6.0375      2.00000
      2      -3.0561      2.00000
      3       0.1432      2.00000
      4       1.2310      2.00000
      5      15.8340      0.00000
      6      16.8791      0.00000
      7      18.8749      0.00000
      8      21.4773      0.00000

 k-point  1310 :      -0.3514    0.4324    0.1892
  band No.  band energies     occupation 
      1      -5.6334      2.00000
      2      -3.3742      2.00000
      3      -0.0095      2.00000
      4       1.0464      2.00000
      5      16.2410      0.00000
      6      17.2912      0.00000
      7      18.7364      0.00000
      8      21.0160      0.00000

 k-point  1311 :      -0.3243    0.4324    0.1892
  band No.  band energies     occupation 
      1      -5.3011      2.00000
      2      -3.6473      2.00000
      3      -0.1580      2.00000
      4       0.9754      2.00000
      5      16.4626      0.00000
      6      17.9304      0.00000
      7      18.6089      0.00000
      8      20.4263      0.00000

 k-point  1312 :      -0.2973    0.4324    0.1892
  band No.  band energies     occupation 
      1      -5.1586      2.00000
      2      -3.7615      2.00000
      3      -0.2876      2.00000
      4       1.0127      2.00000
      5      16.6217      0.00000
      6      18.3418      0.00000
      7      18.7857      0.00000
      8      19.7766      0.00000

 k-point  1313 :      -0.2703    0.4324    0.1892
  band No.  band energies     occupation 
      1      -5.2984      2.00000
      2      -3.6317      2.00000
      3      -0.3678      2.00000
      4       1.1381      2.00000
      5      16.7743      0.00000
      6      18.1487      0.00000
      7      19.1600      0.00000
      8      19.5077      0.00000

 k-point  1314 :      -0.2432    0.4324    0.1892
  band No.  band energies     occupation 
      1      -5.6188      2.00000
      2      -3.3715      2.00000
      3      -0.3678      2.00000
      4       1.3323      2.00000
      5      16.9340      0.00000
      6      17.7326      0.00000
      7      18.7337      0.00000
      8      20.2130      0.00000

 k-point  1315 :      -0.3514    0.4595    0.1892
  band No.  band energies     occupation 
      1      -5.4056      2.00000
      2      -3.5953      2.00000
      3       0.1812      2.00000
      4       0.8239      2.00000
      5      15.9620      0.00000
      6      16.5878      0.00000
      7      19.4809      0.00000
      8      21.1287      0.00000

 k-point  1316 :      -0.3243    0.4595    0.1892
  band No.  band energies     occupation 
      1      -5.0406      2.00000
      2      -3.8744      2.00000
      3       0.0398      2.00000
      4       0.6998      2.00000
      5      16.3133      0.00000
      6      17.1121      0.00000
      7      19.3416      0.00000
      8      20.5306      0.00000

 k-point  1317 :      -0.2973    0.4595    0.1892
  band No.  band energies     occupation 
      1      -4.8452      2.00000
      2      -4.0185      2.00000
      3      -0.1539      2.00000
      4       0.7528      2.00000
      5      16.4774      0.00000
      6      17.8738      0.00000
      7      19.1778      0.00000
      8      19.8780      0.00000

 k-point  1318 :      -0.2703    0.4595    0.1892
  band No.  band energies     occupation 
      1      -4.9824      2.00000
      2      -3.8805      2.00000
      3      -0.3086      2.00000
      4       0.9114      2.00000
      5      16.6225      0.00000
      6      18.6124      0.00000
      7      18.9030      0.00000
      8      19.3672      0.00000

 k-point  1319 :      -0.3243    0.4865    0.1892
  band No.  band energies     occupation 
      1      -4.7797      2.00000
      2      -4.1723      2.00000
      3       0.3022      2.00000
      4       0.5144      2.00000
      5      16.1292      0.00000
      6      16.3376      0.00000
      7      20.0798      0.00000
      8      20.6430      0.00000

 k-point  1320 :      -0.2973    0.4865    0.1892
  band No.  band energies     occupation 
      1      -4.5842      2.00000
      2      -4.2984      2.00000
      3       0.0877      2.00000
      4       0.5508      2.00000
      5      16.3476      0.00000
      6      17.0410      0.00000
      7      19.8732      0.00000
      8      20.0347      0.00000

 k-point  1321 :      -0.3514    0.4324    0.2162
  band No.  band energies     occupation 
      1      -5.8271      2.00000
      2      -3.1971      2.00000
      3      -0.1440      2.00000
      4       1.2482      2.00000
      5      16.7771      0.00000
      6      17.5856      0.00000
      7      18.1286      0.00000
      8      20.9108      0.00000

 k-point  1322 :      -0.3243    0.4324    0.2162
  band No.  band energies     occupation 
      1      -5.4559      2.00000
      2      -3.4898      2.00000
      3      -0.2237      2.00000
      4       1.0542      2.00000
      5      17.1645      0.00000
      6      17.6761      0.00000
      7      18.3436      0.00000
      8      20.3114      0.00000

 k-point  1323 :      -0.2973    0.4324    0.2162
  band No.  band energies     occupation 
      1      -5.2041      2.00000
      2      -3.7040      2.00000
      3      -0.2561      2.00000
      4       0.9500      2.00000
      5      17.3000      0.00000
      6      17.6839      0.00000
      7      18.9216      0.00000
      8      19.6253      0.00000

 k-point  1324 :      -0.3243    0.4595    0.2162
  band No.  band energies     occupation 
      1      -5.2448      2.00000
      2      -3.6531      2.00000
      3      -0.0610      2.00000
      4       0.7739      2.00000
      5      16.9026      0.00000
      6      17.4553      0.00000
      7      18.6058      0.00000
      8      20.4139      0.00000

 k-point  1325 :      -0.2973    0.4595    0.2162
  band No.  band energies     occupation 
      1      -4.9339      2.00000
      2      -3.8975      2.00000
      3      -0.1062      2.00000
      4       0.6279      2.00000
      5      17.2383      0.00000
      6      17.9599      0.00000
      7      18.5104      0.00000
      8      19.7196      0.00000

 k-point  1326 :      -0.2703    0.4595    0.2162
  band No.  band energies     occupation 
      1      -4.8650      2.00000
      2      -3.9482      2.00000
      3      -0.1741      2.00000
      4       0.6473      2.00000
      5      17.3864      0.00000
      6      18.1978      0.00000
      7      18.8495      0.00000
      8      19.0300      0.00000

 k-point  1327 :      -0.2432    0.4595    0.2162
  band No.  band energies     occupation 
      1      -5.0994      2.00000
      2      -3.7501      2.00000
      3      -0.2299      2.00000
      4       0.8049      2.00000
      5      17.5133      0.00000
      6      17.8533      0.00000
      7      18.5220      0.00000
      8      19.6025      0.00000

 k-point  1328 :      -0.2973    0.4865    0.2162
  band No.  band energies     occupation 
      1      -4.6811      2.00000
      2      -4.1479      2.00000
      3       0.1159      2.00000
      4       0.3938      2.00000
      5      17.0601      0.00000
      6      17.2481      0.00000
      7      19.2119      0.00000
      8      19.8295      0.00000

 k-point  1329 :      -0.2703    0.4865    0.2162
  band No.  band energies     occupation 
      1      -4.5778      2.00000
      2      -4.2129      2.00000
      3       0.0017      2.00000
      4       0.4138      2.00000
      5      17.2694      0.00000
      6      17.9547      0.00000
      7      19.0033      0.00000
      8      19.1738      0.00000

 k-point  1330 :      -0.2703    0.4865    0.2432
  band No.  band energies     occupation 
      1      -4.6108      2.00000
      2      -4.1608      2.00000
      3       0.0117      2.00000
      4       0.3591      2.00000
      5      17.9814      0.00000
      6      17.9834      0.00000
      7      18.4848      0.00000
      8      18.9686      0.00000


--------------------------------------------------------------------------------------------------------


 soft charge-density along one line, spin component           1
         0         1         2         3         4         5         6         7         8         9
 total charge-density along one line
 
 pseudopotential strength for first ion, spin component:           1
  9.729  12.920  -0.000  -0.000   0.000   0.000   0.000  -0.000
 12.920  17.156  -0.000  -0.000   0.000   0.000   0.000  -0.000
 -0.000  -0.000  -3.748   0.000   0.000   7.291  -0.000  -0.000
 -0.000  -0.000   0.000  -3.748   0.000  -0.000   7.291  -0.000
  0.000   0.000   0.000   0.000  -3.748  -0.000  -0.000   7.291
  0.000   0.000   7.291  -0.000  -0.000 -16.422   0.000   0.000
  0.000   0.000  -0.000   7.291  -0.000   0.000 -16.422   0.000
 -0.000  -0.000  -0.000  -0.000   7.291   0.000   0.000 -16.422
 total augmentation occupancy for first ion, spin component:           1
  6.685  -2.832   0.000  -0.000   0.000   0.000   0.000   0.000
 -2.832   1.282   0.000   0.000   0.000   0.000   0.000   0.000
  0.000  -0.000   1.432  -0.000   0.000   0.122   0.000  -0.000
  0.000  -0.000  -0.000   1.432   0.000   0.000   0.122  -0.000
  0.000   0.000  -0.000   0.000   1.432   0.000  -0.000   0.122
  0.000   0.000   0.122  -0.000   0.000   0.012   0.000   0.000
  0.000   0.000   0.000   0.122   0.000   0.000   0.012   0.000
  0.000  -0.000   0.000   0.000   0.122   0.000   0.000   0.012


------------------------ aborting loop because EDIFF is reached ----------------------------------------


 


 total charge     
 
# of ion       s       p       d       tot
------------------------------------------
    1        0.822   1.585   0.000   2.408
    2        0.822   1.585   0.000   2.408
--------------------------------------------------
tot          1.644   3.171   0.000   4.815
 
    CHARGE:  cpu time    0.0622: real time    0.0622
    FORLOC:  cpu time    0.0002: real time    0.0002
    FORNL :  cpu time    0.1088: real time    0.1088
    STRESS:  cpu time   11.4440: real time   11.4462
    FORCOR:  cpu time    0.0157: real time    0.0157
    FORHAR:  cpu time    0.0009: real time    0.0010
    MIXING:  cpu time    0.0010: real time    0.0010
    OFIELD:  cpu time    0.0000: real time    0.0000

  FORCE on cell =-STRESS in cart. coord.  units (eV):
  Direction    XX          YY          ZZ          XY          YZ          ZX
  --------------------------------------------------------------------------------------
  Alpha Z    24.86420    24.86420    24.86420
  Ewald    -110.23186  -110.23186  -110.23186     0.00000     0.00000     0.00000
  Hartree     9.49045     9.49045     9.49045     0.00000     0.00000     0.00000
  E(xc)     -29.41785   -29.63013   -29.48988     0.15273    -0.03521     0.06575
  Local     -14.40900   -14.40900   -14.40900    -0.00000    -0.00000    -0.00000
  n-local    -4.30534    -3.88850    -4.24760    -0.73153     0.23535    -0.12083
  augment    -0.73191    -0.73191    -0.73191     0.00000     0.00000     0.00000
  Kinetic   123.16976   118.35599   119.45398     5.23974    -1.56433     1.85788
  Fock        0.00000     0.00000     0.00000     0.00000     0.00000     0.00000
  -------------------------------------------------------------------------------------
  Total      -4.35130    -4.35130    -4.35130    -0.00000     0.00000    -0.00000
  in kB    -527.53826  -527.53826  -527.53826    -0.00000     0.00000    -0.00000
  external pressure =     -527.54 kB  Pullay stress =        0.00 kB


 VOLUME and BASIS-vectors are now :
 -----------------------------------------------------------------------------
  energy-cutoff  :      800.00
  volume of cell :       13.22
      direct lattice vectors                 reciprocal lattice vectors
     0.000000000  1.876500000  1.876500000    -0.266453504  0.266453504  0.266453504
     1.876500000  0.000000000  1.876500000     0.266453504 -0.266453504  0.266453504
     1.876500000  1.876500000  0.000000000     0.266453504  0.266453504 -0.266453504

  length of vectors
     2.653771750  2.653771750  2.653771750     0.461511007  0.461511007  0.461511007


 FORCES acting on ions
    electron-ion (+dipol)            ewald-force                    non-local-force                 convergence-correction
 -----------------------------------------------------------------------------------------------
   0.445E-08 0.445E-08 0.260E-08   0.494E-14 -.443E-14 -.313E-15   0.902E-16 0.625E-16 0.132E-15   0.229E-09 0.229E-09 0.229E-09
   -.445E-08 -.445E-08 -.260E-08   -.542E-14 0.530E-14 0.627E-15   -.763E-16 0.694E-17 -.121E-15   -.229E-09 -.229E-09 -.229E-09
 -----------------------------------------------------------------------------------------------
   0.194E-12 0.412E-12 0.151E-12   -.481E-15 0.876E-15 0.314E-15   0.139E-16 0.694E-16 0.104E-16   -.652E-15 -.381E-14 -.269E-14
 
 
 POSITION                                       TOTAL-FORCE (eV/Angst)
 -----------------------------------------------------------------------------------
      3.28388      3.28388      3.28388         0.000000      0.000000      0.000000
      0.46913      0.46913      0.46913        -0.000000     -0.000000     -0.000000
 -----------------------------------------------------------------------------------
    total drift:                                0.000000      0.000000      0.000000


--------------------------------------------------------------------------------------------------------



  FREE ENERGIE OF THE ION-ELECTRON SYSTEM (eV)
  ---------------------------------------------------
  free  energy   TOTEN  =       -19.32098072 eV

  energy  without entropy=      -19.32098072  energy(sigma->0) =      -19.32098072
 


--------------------------------------------------------------------------------------------------------


    POTLOK:  cpu time    0.3708: real time    0.3707


--------------------------------------------------------------------------------------------------------


     LOOP+:  cpu time   81.8869: real time   81.9894
    4ORBIT:  cpu time    0.0000: real time    0.0000
 


 total charge     
 
# of ion       s       p       d       tot
------------------------------------------
    1        0.822   1.585   0.000   2.408
    2        0.822   1.585   0.000   2.408
--------------------------------------------------
tot          1.644   3.171   0.000   4.815
 
 BZINTS: Fermi energy:   11.592467;    8.000000 electrons
         Band energy:-0.796524E+01;  BLOECHL correction:    0.000000

 total amount of memory used by VASP MPI-rank0    44044. kBytes
=======================================================================

   base      :      30000. kBytes
   nonl-proj :       5960. kBytes
   fftplans  :        919. kBytes
   grid      :        523. kBytes
   one-center:          3. kBytes
   wavefun   :       6639. kBytes
 
  
  
 General timing and accounting informations for this job:
 ========================================================
  
                  Total CPU time used (sec):       85.912
                            User time (sec):       85.590
                          System time (sec):        0.322
                         Elapsed time (sec):       86.326
  
                   Maximum memory used (kb):      103316.
                   Average memory used (kb):           0.
  
                          Minor page faults:        37347
                          Major page faults:            8
                 Voluntary context switches:         1440
